/*--------------------------------*- C++ -*----------------------------------*\
| =========                 |                                                 |
| \\      /  F ield         | OpenFOAM: The Open Source CFD Toolbox           |
|  \\    /   O peration     | Version:  2212                                  |
|   \\  /    A nd           | Website:  www.openfoam.com                      |
|    \\/     M anipulation  |                                                 |
\*---------------------------------------------------------------------------*/
FoamFile
{
    version     2.0;
    format      ascii;
    arch        "LSB;label=32;scalar=64";
    class       volScalarField;
    location    "340";
    object      p;
}
// * * * * * * * * * * * * * * * * * * * * * * * * * * * * * * * * * * * * * //

dimensions      [0 2 -2 0 0 0 0];

internalField   nonuniform List<scalar> 
248319
(
0
0.0192827
0.0402723
0.0499141
0.0579539
0.0646566
0.0702503
0.109362
0.103297
0.0960232
0.0873009
0.0768417
0.0510524
0.0498406
0.0761433
0.0872767
0.0965731
0.104331
0.110802
0.0812637
0.0763938
0.0706055
0.0636776
0.0553516
0.0330992
0.0137246
0.0280115
0.0342241
0.039524
0.0440886
0.0480623
0.0626242
0.0577865
0.0519889
0.0450502
0.0367416
0.019683
-0.0539497
-0.0471935
-0.0434488
-0.0403252
-0.0377046
-0.0355287
-0.0212278
-0.0246956
-0.0288541
-0.0338319
-0.0397973
-0.0507589
-0.055545
-0.0402175
-0.0334752
-0.0278601
-0.0231797
-0.0192631
0.0634679
0.0574284
0.0501799
0.0414889
0.0310674
0.000543627
0.0309098
0.059313
0.0692855
0.0775999
0.0845278
0.090307
0.100136
0.0944895
0.0877144
0.0795873
0.0698436
0.0359025
0.0499516
0.0749748
0.0847379
0.0928752
0.0996592
0.105314
0.109529
0.103006
0.0951848
0.0858083
0.0745688
0.047315
0.0190799
0.0397522
0.0463792
0.0519055
0.0565883
0.060637
-0.0356262
-0.0383567
-0.0410871
-0.0438155
-0.0465459
-0.0535702
-0.051498
-0.0438495
-0.0414607
-0.0392202
-0.0370821
-0.0350175
-0.140379
-0.140789
-0.141179
-0.141549
-0.141888
-0.145264
-0.144829
-0.141952
-0.140973
-0.140159
-0.139477
-0.138905
-0.132513
-0.133791
-0.135337
-0.137175
-0.139385
-0.144443
-0.145907
-0.139377
-0.136704
-0.134476
-0.132606
-0.131065
-0.133984
-0.135622
-0.1376
-0.13996
-0.142805
-0.150191
-0.0695773
-0.0525745
-0.045754
-0.0400683
-0.0353351
-0.0313728
0.0473185
0.0406981
0.0327574
0.0232264
0.0117998
-0.019462
-0.00915995
0.0315409
0.0452773
0.0567307
0.0662815
0.0742439
0.090175
0.0833697
0.0752088
0.0654173
0.0536742
0.0104129
0.00965221
0.0523115
0.0641494
0.0740162
0.0822395
0.0890957
0.0978772
0.0922961
0.0855991
0.0775621
0.06792
0.0344773
0.0489417
0.0735196
0.0833181
0.0914823
0.0982856
0.103953
0.109475
0.10278
0.0947533
0.0851304
0.0735937
0.0456344
0.0147857
0.0354123
0.0421978
0.0479108
0.0527925
0.0570389
-0.0392364
-0.0419526
-0.0446707
-0.0473891
-0.0501102
-0.0586944
-0.147627
-0.143318
-0.142599
-0.14188
-0.141162
-0.140444
-0.139439
-0.140143
-0.140843
-0.141542
-0.142241
-0.146189
-0.244007
-0.242358
-0.242284
-0.242211
-0.242138
-0.242063
-0.242964
-0.242953
-0.242919
-0.242859
-0.242762
-0.24376
-0.243303
-0.242399
-0.242274
-0.242167
-0.242083
-0.242016
-0.238682
-0.239004
-0.239385
-0.23985
-0.240402
-0.242615
-0.24287
-0.239816
-0.239096
-0.238493
-0.237994
-0.237568
-0.238124
-0.238592
-0.239156
-0.239824
-0.240625
-0.244232
-0.245659
-0.241497
-0.24052
-0.239712
-0.239027
-0.238468
-0.136209
-0.138053
-0.140271
-0.142926
-0.146115
-0.154314
-0.0773852
-0.0596688
-0.0525147
-0.0465493
-0.0415842
-0.0374379
0.0342276
0.0274502
0.0193163
0.00955195
-0.00214997
-0.0328368
-0.0252805
0.0126356
0.0266672
0.0383663
0.0481198
0.0562474
0.0568196
0.0485519
0.0386288
0.0267249
0.012444
-0.0247355
-0.00913619
0.0306822
0.0447038
0.0563903
0.0661327
0.0742537
0.0739227
0.0657209
0.0558798
0.044074
0.0299044
-0.00976688
0.00871861
0.0514053
0.063405
0.0734024
0.0817348
0.0886796
0.0975717
0.0919123
0.0851231
0.0769745
0.067198
0.0335517
0.04807
0.0729829
0.0829113
0.0911845
0.0980797
0.103823
0.109423
0.102617
0.0944546
0.084669
0.0729362
0.0445311
0.0132894
0.0339975
0.0409704
0.0468572
0.0518974
0.0562842
-0.0407189
-0.0434423
-0.0461651
-0.048888
-0.0516126
-0.0603993
-0.148689
-0.144132
-0.143456
-0.14278
-0.142105
-0.14143
-0.242722
-0.242798
-0.242874
-0.242952
-0.243028
-0.245119
-0.244496
-0.242472
-0.242399
-0.242327
-0.242254
-0.24218
-0.343436
-0.343434
-0.343432
-0.343431
-0.343428
-0.34421
-0.343973
-0.343405
-0.343427
-0.343447
-0.343468
-0.343488
-0.344218
-0.344166
-0.344102
-0.344024
-0.343929
-0.34402
-0.3437
-0.343608
-0.343662
-0.343713
-0.343753
-0.343788
-0.341969
-0.342016
-0.342069
-0.342137
-0.342219
-0.343046
-0.343001
-0.341744
-0.341615
-0.341502
-0.341414
-0.341347
-0.341485
-0.341567
-0.341677
-0.341811
-0.341963
-0.343489
-0.343962
-0.342143
-0.341955
-0.34179
-0.341659
-0.341546
-0.340746
-0.340941
-0.341157
-0.341428
-0.341748
-0.344
-0.24604
-0.241069
-0.23969
-0.238545
-0.237582
-0.236795
-0.134488
-0.136806
-0.139594
-0.142935
-0.146937
-0.156201
-0.081815
-0.063292
-0.0553257
-0.0486821
-0.0431601
-0.0385379
0.023993
0.017514
0.00973664
0.000404644
-0.0107807
-0.0404905
-0.0341674
0.00128523
0.0136006
0.0238698
0.0324303
0.0395638
0.0405646
0.0333931
0.0247878
0.0144636
0.00207901
-0.0330943
-0.0329158
0.00218771
0.0145595
0.0248711
0.0334661
0.0406272
0.0567175
0.048414
0.0384497
0.0264968
0.0121541
-0.024883
-0.0250552
0.0120395
0.0263828
0.0383346
0.0482952
0.0565946
0.0737258
0.0655128
0.0556568
0.0438273
0.0296352
-0.0101191
0.008268
0.0511085
0.063145
0.0731703
0.081529
0.088492
0.0974454
0.0917666
0.0849551
0.0767792
0.0669651
0.0331419
0.0476846
0.0727796
0.0827499
0.0910562
0.097979
0.103746
0.109379
0.102527
0.0943098
0.0844575
0.0726462
0.0440615
0.012734
0.0335581
0.0405997
0.0465458
0.051638
0.0560664
-0.0412029
-0.043922
-0.0466403
-0.0493593
-0.0520799
-0.0610078
-0.149298
-0.144733
-0.144054
-0.143373
-0.142693
-0.142013
-0.243186
-0.243262
-0.243339
-0.243417
-0.243493
-0.245573
-0.344873
-0.344046
-0.344046
-0.344046
-0.344045
-0.344045
-0.343722
-0.343722
-0.343723
-0.343723
-0.343724
-0.34456
-0.444347
-0.44402
-0.444019
-0.444018
-0.444018
-0.444018
-0.443851
-0.44385
-0.443849
-0.443849
-0.443847
-0.444135
-0.444039
-0.443881
-0.443894
-0.443908
-0.443922
-0.443934
-0.444485
-0.444455
-0.444416
-0.44437
-0.444315
-0.444168
-0.444035
-0.444172
-0.444231
-0.444285
-0.44433
-0.444364
-0.44343
-0.44343
-0.443424
-0.443418
-0.443413
-0.443671
-0.443751
-0.443304
-0.4433
-0.443286
-0.443282
-0.443267
-0.443623
-0.443645
-0.443641
-0.443663
-0.443679
-0.444191
-0.444754
-0.444212
-0.444177
-0.444161
-0.444151
-0.444128
-0.444412
-0.444437
-0.444473
-0.444509
-0.444565
-0.445189
-0.445387
-0.444564
-0.444447
-0.444345
-0.44427
-0.444205
-0.338864
-0.339231
-0.339652
-0.340167
-0.340782
-0.343675
-0.245824
-0.239632
-0.237451
-0.235631
-0.234104
-0.232845
-0.124281
-0.127533
-0.131447
-0.136142
-0.14178
-0.154678
-0.0824847
-0.0606083
-0.0513335
-0.0435985
-0.0371672
-0.0317814
0.0161981
0.00999437
0.00255186
-0.00637786
-0.0170886
-0.0445809
-0.040698
-0.0115051
-0.00119707
0.00739938
0.0145614
0.020535
0.0212611
0.015341
0.00823991
-0.000283002
-0.0105051
-0.0395447
-0.0393245
-0.0103401
-0.000140471
0.00836157
0.0154454
0.0213518
0.0213247
0.0154212
0.00834564
-0.000149432
-0.0103471
-0.0393612
-0.032973
0.00217625
0.0145378
0.0248404
0.0334231
0.0405756
0.0405238
0.033372
0.0247922
0.0144915
0.00213093
-0.0330718
-0.0251903
0.0119644
0.0263064
0.0382577
0.0482159
0.0565131
0.0736259
0.0654104
0.0555517
0.0437192
0.029524
-0.0103037
0.00807118
0.0510013
0.0630427
0.0730747
0.0814385
0.0884063
0.097389
0.0917076
0.08489
0.0767089
0.0668903
0.0329902
0.0475512
0.0727162
0.0826966
0.0910116
0.097942
0.103715
0.109367
0.102499
0.0942626
0.0843865
0.0725481
0.0439164
0.0125773
0.0335075
0.0405891
0.0465692
0.0516873
0.056133
-0.041359
-0.0440876
-0.0468154
-0.049543
-0.052272
-0.0612271
-0.14956
-0.145004
-0.144321
-0.14364
-0.142957
-0.142273
-0.243461
-0.243538
-0.243616
-0.243692
-0.24377
-0.245829
-0.345095
-0.34429
-0.34429
-0.344289
-0.344289
-0.344289
-0.444463
-0.444463
-0.444464
-0.444464
-0.444465
-0.444768
-0.444574
-0.444253
-0.444252
-0.444252
-0.444252
-0.444252
-0.543828
-0.543829
-0.543829
-0.543829
-0.54383
-0.543967
-0.543775
-0.543633
-0.543632
-0.543632
-0.543631
-0.543631
-0.543506
-0.543507
-0.543508
-0.543507
-0.543506
-0.54363
-0.54359
-0.543541
-0.543547
-0.543553
-0.543559
-0.543566
-0.543941
-0.543926
-0.543907
-0.543882
-0.543854
-0.543722
-0.54374
-0.543883
-0.543923
-0.543949
-0.543968
-0.544
-0.543662
-0.543646
-0.543656
-0.543642
-0.543635
-0.54368
-0.543997
-0.543905
-0.543899
-0.543915
-0.543896
-0.543904
-0.544642
-0.544633
-0.544653
-0.544643
-0.544648
-0.544684
-0.545678
-0.545757
-0.545756
-0.545759
-0.545748
-0.545752
-0.547079
-0.547083
-0.547088
-0.547089
-0.547096
-0.546877
-0.548133
-0.548471
-0.548444
-0.548439
-0.548419
-0.548408
-0.549303
-0.549327
-0.549367
-0.549401
-0.549451
-0.549087
-0.445329
-0.444128
-0.443854
-0.443629
-0.443444
-0.443286
-0.33605
-0.336709
-0.33748
-0.338415
-0.339542
-0.343303
-0.246645
-0.238945
-0.23563
-0.232862
-0.230547
-0.228626
-0.121731
-0.12577
-0.130636
-0.136473
-0.143477
-0.159696
-0.10957
-0.0814941
-0.071177
-0.062571
-0.0553986
-0.0494159
-0.0144876
-0.0204097
-0.027503
-0.0360197
-0.0462324
-0.0736265
-0.0681617
-0.035812
-0.0257607
-0.0173826
-0.0103941
-0.00456547
-0.0045973
-0.0104158
-0.0173897
-0.0257571
-0.0358022
-0.0676285
-0.0675482
-0.035822
-0.0257765
-0.0174061
-0.0104306
-0.0046159
-0.00466611
-0.010479
-0.0174566
-0.0258237
-0.0358674
-0.0676198
-0.0677127
-0.0359259
-0.0258765
-0.0175038
-0.0105263
-0.00471049
0.0212851
0.0153817
0.00830382
-0.000193482
-0.0103934
-0.0394422
-0.0395056
-0.0104334
-0.000232224
0.00826931
0.0153521
0.0212553
0.0404925
0.0333382
0.0247541
0.0144527
0.00209021
-0.0331425
-0.0252683
0.0119214
0.026262
0.0382126
0.0481713
0.0564705
0.073577
0.0653615
0.055503
0.0436726
0.0294787
-0.0103875
0.00799912
0.0509638
0.0630043
0.0730378
0.0814018
0.0883693
0.0973682
0.0916855
0.0848667
0.076686
0.0668717
0.0329497
0.0475202
0.0727016
0.0826816
0.0909975
0.0979281
0.103703
0.109358
0.102489
0.094249
0.0843691
0.072528
0.0438854
0.0125452
0.0335003
0.040586
0.0465682
0.0516892
0.0561362
-0.0413879
-0.0441193
-0.046848
-0.0495765
-0.0523076
-0.0612702
-0.149645
-0.145096
-0.144413
-0.14373
-0.143049
-0.142365
-0.243592
-0.24367
-0.243746
-0.243823
-0.243901
-0.245945
-0.345227
-0.344437
-0.344436
-0.344436
-0.344436
-0.344435
-0.444631
-0.444631
-0.444631
-0.444632
-0.444632
-0.444922
-0.544384
-0.544278
-0.544277
-0.544276
-0.544276
-0.544275
-0.544048
-0.544049
-0.544049
-0.544049
-0.54405
-0.544171
-0.643282
-0.643241
-0.64324
-0.643239
-0.643239
-0.643239
-0.642945
-0.642945
-0.642945
-0.642946
-0.642946
-0.643006
-0.6428
-0.642729
-0.642729
-0.642728
-0.642728
-0.642728
-0.642599
-0.642599
-0.642599
-0.6426
-0.642601
-0.642667
-0.642638
-0.642607
-0.642609
-0.64261
-0.642611
-0.642614
-0.642848
-0.642841
-0.642834
-0.642826
-0.642814
-0.64274
-0.642854
-0.642952
-0.642962
-0.642974
-0.642995
-0.642995
-0.643038
-0.643047
-0.643036
-0.643038
-0.643036
-0.643008
-0.643529
-0.643582
-0.643588
-0.643584
-0.643584
-0.643584
-0.644655
-0.64466
-0.644651
-0.644662
-0.644653
-0.644478
-0.645914
-0.646298
-0.646301
-0.64629
-0.646299
-0.646294
-0.648504
-0.648506
-0.648512
-0.648515
-0.648512
-0.647862
-0.650227
-0.651172
-0.651176
-0.65117
-0.651162
-0.651166
-0.65366
-0.653661
-0.653669
-0.653674
-0.653679
-0.652524
-0.65324
-0.654553
-0.654527
-0.654518
-0.654496
-0.654492
-0.548954
-0.549026
-0.549107
-0.549199
-0.549314
-0.549086
-0.445056
-0.443214
-0.442643
-0.442166
-0.44177
-0.441446
-0.332396
-0.333549
-0.3349
-0.336538
-0.338505
-0.34357
-0.247288
-0.235362
-0.230321
-0.226118
-0.222599
-0.219692
-0.125677
-0.130334
-0.135919
-0.142621
-0.150658
-0.170127
-0.126763
-0.0995755
-0.0890688
-0.0803086
-0.0730059
-0.0669197
-0.0553511
-0.0619189
-0.0698082
-0.0792662
-0.0906148
-0.121097
-0.102529
-0.0664789
-0.0549366
-0.0453113
-0.0372897
-0.0305998
-0.0307576
-0.0374102
-0.0453929
-0.0549692
-0.0664588
-0.101793
-0.101683
-0.0665626
-0.0550729
-0.0454947
-0.0375115
-0.0308598
-0.0309396
-0.0375921
-0.0455767
-0.0551547
-0.0666483
-0.10174
-0.101832
-0.0667117
-0.055213
-0.0456347
-0.0376473
-0.0309923
-0.0310238
-0.0376786
-0.0456683
-0.0552517
-0.0667557
-0.101901
-0.067779
-0.0359685
-0.0259141
-0.0175365
-0.0105567
-0.00473775
-0.00474861
-0.0105709
-0.0175528
-0.0259358
-0.0359902
-0.0678181
-0.0395418
-0.0104544
-0.000250648
0.00824894
0.0153366
0.0212391
0.040476
0.0333197
0.0247343
0.0144309
0.00206552
-0.0331846
-0.0253092
0.0118975
0.0262399
0.0381914
0.048152
0.0564491
0.0735571
0.0653421
0.0554837
0.0436535
0.02946
-0.0104208
0.00797958
0.0509534
0.0629919
0.0730252
0.0813889
0.0883542
0.097361
0.0916782
0.0848621
0.076683
0.0668679
0.032947
0.0475219
0.0726986
0.0826793
0.0909959
0.0979247
0.103699
0.109356
0.102486
0.0942462
0.0843659
0.0725242
0.0438945
0.0125675
0.0335342
0.0406263
0.0466121
0.0517344
0.0561832
-0.0413745
-0.044104
-0.0468324
-0.0495633
-0.0522952
-0.0612583
-0.149658
-0.145116
-0.144433
-0.143748
-0.143065
-0.142383
-0.243643
-0.243719
-0.243796
-0.243875
-0.243952
-0.245987
-0.345304
-0.344522
-0.344521
-0.344521
-0.34452
-0.34452
-0.444769
-0.444769
-0.44477
-0.44477
-0.444771
-0.44505
-0.544614
-0.544524
-0.544523
-0.544522
-0.544522
-0.544522
-0.644099
-0.644099
-0.644099
-0.6441
-0.644102
-0.644079
-0.643637
-0.643624
-0.643623
-0.643622
-0.643621
-0.643621
-0.742939
-0.74294
-0.742941
-0.742943
-0.742945
-0.742878
-0.742242
-0.742258
-0.742257
-0.742255
-0.742254
-0.742254
-0.741785
-0.741786
-0.741786
-0.741787
-0.741788
-0.741805
-0.741523
-0.741486
-0.741486
-0.741485
-0.741485
-0.741484
-0.741314
-0.741314
-0.741315
-0.741315
-0.741316
-0.741359
-0.74131
-0.741276
-0.741276
-0.741275
-0.741276
-0.741276
-0.741383
-0.741382
-0.741382
-0.741383
-0.741383
-0.741368
-0.741518
-0.741562
-0.741563
-0.741566
-0.741569
-0.741571
-0.741846
-0.741847
-0.741846
-0.741845
-0.741845
-0.741796
-0.742431
-0.742551
-0.742548
-0.742544
-0.742553
-0.742548
-0.743805
-0.743799
-0.743799
-0.743796
-0.743806
-0.74353
-0.745231
-0.745745
-0.745737
-0.745749
-0.74574
-0.745746
-0.7485
-0.7485
-0.748503
-0.748495
-0.748499
-0.747651
-0.750768
-0.752046
-0.752042
-0.752042
-0.752042
-0.752043
-0.755841
-0.755855
-0.755838
-0.755851
-0.755849
-0.754171
-0.757039
-0.75833
-0.758331
-0.758317
-0.758331
-0.758316
-0.752372
-0.752377
-0.752376
-0.752392
-0.752394
-0.750937
-0.650142
-0.651453
-0.651396
-0.651362
-0.651319
-0.651301
-0.546539
-0.546713
-0.546892
-0.54711
-0.547384
-0.547579
-0.444606
-0.441804
-0.440729
-0.439831
-0.43908
-0.438467
-0.328989
-0.330797
-0.332954
-0.335554
-0.338665
-0.345484
-0.255368
-0.239723
-0.233211
-0.227782
-0.223252
-0.219483
-0.140953
-0.146835
-0.153878
-0.162339
-0.172475
-0.201281
-0.161014
-0.133932
-0.123838
-0.115418
-0.108397
-0.102537
-0.0845207
-0.0909497
-0.0986587
-0.107906
-0.118992
-0.153271
-0.152031
-0.118425
-0.107529
-0.0984429
-0.0908715
-0.0845592
-0.0557014
-0.0621174
-0.0698244
-0.0790672
-0.0901567
-0.119902
-0.119724
-0.0901975
-0.079136
-0.0699168
-0.0622342
-0.055833
-0.0559328
-0.0623324
-0.0700107
-0.0792274
-0.0902839
-0.11979
-0.119882
-0.0903573
-0.0792974
-0.0700785
-0.0623955
-0.0559961
-0.0560321
-0.0624336
-0.0701194
-0.0793433
-0.0904083
-0.119952
-0.119993
-0.0904349
-0.0793685
-0.0701403
-0.0624543
-0.0560476
-0.0310369
-0.0376916
-0.0456837
-0.0552698
-0.0667789
-0.101943
-0.101964
-0.0667843
-0.0552744
-0.0456882
-0.0376961
-0.031036
-0.00475396
-0.010572
-0.017557
-0.02594
-0.0359968
-0.0678381
-0.039559
-0.0104611
-0.000255229
0.00824662
0.015332
0.0212377
0.0404703
0.0333152
0.0247264
0.0144222
0.00205523
-0.0332065
-0.0253307
0.0118867
0.0262303
0.038181
0.0481422
0.0564413
0.0735502
0.065335
0.055475
0.0436488
0.0294541
-0.0104343
0.00797582
0.0509524
0.0629909
0.0730216
0.0813835
0.0883506
0.0973581
0.0916772
0.0848631
0.076685
0.0668701
0.0329525
0.0475266
0.0727001
0.082681
0.0909963
0.0979256
0.103699
0.109353
0.102482
0.0942433
0.0843644
0.0725227
0.0438979
0.012579
0.0335415
0.0406328
0.0466197
0.0517393
0.0561859
-0.0413537
-0.044083
-0.0468124
-0.0495434
-0.0522768
-0.0612378
-0.14965
-0.14511
-0.144427
-0.143742
-0.143057
-0.142375
-0.243662
-0.243739
-0.243818
-0.243897
-0.243973
-0.246004
-0.345356
-0.34458
-0.344579
-0.344578
-0.344578
-0.344578
-0.444891
-0.444891
-0.444891
-0.444892
-0.444893
-0.445164
-0.544855
-0.544788
-0.544787
-0.544787
-0.544786
-0.544786
-0.644651
-0.644651
-0.644652
-0.644653
-0.644654
-0.64458
-0.744739
-0.745
-0.744999
-0.744997
-0.744997
-0.744996
-0.743874
-0.743875
-0.743876
-0.743878
-0.74388
-0.743729
-0.843917
-0.844267
-0.844265
-0.844263
-0.844262
-0.844261
-0.842507
-0.842507
-0.842509
-0.842512
-0.842515
-0.842338
-0.84121
-0.841281
-0.841278
-0.841276
-0.841274
-0.841273
-0.8405
-0.840501
-0.840502
-0.840503
-0.840505
-0.840491
-0.840067
-0.840054
-0.840053
-0.840052
-0.840052
-0.840052
-0.839803
-0.839803
-0.839804
-0.839805
-0.839806
-0.839834
-0.839744
-0.839707
-0.839706
-0.839704
-0.839702
-0.839701
-0.839715
-0.83972
-0.839724
-0.839728
-0.839734
-0.839752
-0.8399
-0.839907
-0.839906
-0.8399
-0.839897
-0.839895
-0.840255
-0.84026
-0.840251
-0.840255
-0.840257
-0.840211
-0.840847
-0.840978
-0.840971
-0.840974
-0.840979
-0.840975
-0.842207
-0.842207
-0.842215
-0.842204
-0.842211
-0.841928
-0.843619
-0.84414
-0.844139
-0.84414
-0.84414
-0.844135
-0.84695
-0.846964
-0.84695
-0.846957
-0.84696
-0.846081
-0.849321
-0.850718
-0.850707
-0.850709
-0.850717
-0.85071
-0.855022
-0.855012
-0.855018
-0.855009
-0.855021
-0.852879
-0.856072
-0.858705
-0.858701
-0.8587
-0.858699
-0.858701
-0.859284
-0.859289
-0.859285
-0.859289
-0.859286
-0.858059
-0.90126
-0.90167
-0.901658
-0.901649
-0.901638
-0.901631
-0.925134
-0.933816
-0.941055
-0.94709
-0.952119
-0.952116
-0.947089
-0.941058
-0.933825
-0.925147
-0.925158
-0.933834
-0.94107
-0.947094
-0.95211
-0.952111
-0.947089
-0.941068
-0.933839
-0.925175
-0.925191
-0.933851
-0.941077
-0.947084
-0.952103
-0.952259
-0.947094
-0.940902
-0.933467
-0.924547
-0.925766
-0.934471
-0.94173
-0.947772
-0.95281
-0.90995
-0.903515
-0.895794
-0.886527
-0.875406
-0.84882
-0.805082
-0.838038
-0.851603
-0.862908
-0.872329
-0.880176
-0.88002
-0.872007
-0.862384
-0.85084
-0.836985
-0.837532
-0.8512
-0.86259
-0.872082
-0.879989
-0.880005
-0.872094
-0.862599
-0.851203
-0.837529
-0.83753
-0.851211
-0.862606
-0.872103
-0.880018
-0.880036
-0.872115
-0.862613
-0.85121
-0.83753
-0.837527
-0.851211
-0.862616
-0.87212
-0.880039
-0.865306
-0.856817
-0.846629
-0.834403
-0.819731
-0.819732
-0.8344
-0.846624
-0.856811
-0.865298
-0.865289
-0.856803
-0.846618
-0.834396
-0.819732
-0.819728
-0.834392
-0.84661
-0.85679
-0.865275
-0.865259
-0.856779
-0.846601
-0.834385
-0.819728
-0.818244
-0.833335
-0.84591
-0.856386
-0.865114
-0.865067
-0.856235
-0.845635
-0.832911
-0.817643
-0.782418
-0.782352
-0.782423
-0.782408
-0.78239
-0.782371
-0.782367
-0.718844
-0.718902
-0.718948
-0.719017
-0.719095
-0.718002
-0.636466
-0.636865
-0.63649
-0.63619
-0.635921
-0.635713
-0.536328
-0.53704
-0.53787
-0.538894
-0.540102
-0.542442
-0.446175
-0.439749
-0.436591
-0.433965
-0.43176
-0.429934
-0.321632
-0.325338
-0.329771
-0.335099
-0.341482
-0.356636
-0.302173
-0.274004
-0.264402
-0.256402
-0.249727
-0.244165
-0.204072
-0.209653
-0.216364
-0.224407
-0.234046
-0.260251
-0.222138
-0.195122
-0.185136
-0.176807
-0.169867
-0.164079
-0.150276
-0.156538
-0.164045
-0.173051
-0.183857
-0.214796
-0.191918
-0.153461
-0.141738
-0.131965
-0.123818
-0.117027
-0.11679
-0.123477
-0.131494
-0.141115
-0.152659
-0.190295
-0.189927
-0.152609
-0.1411
-0.131507
-0.123518
-0.116852
-0.0846818
-0.0909801
-0.0985411
-0.107614
-0.118496
-0.151853
-0.151903
-0.118581
-0.107703
-0.098637
-0.091081
-0.0847895
-0.0848574
-0.0911522
-0.0987105
-0.107779
-0.118665
-0.152001
-0.152077
-0.118719
-0.107829
-0.098757
-0.0911962
-0.0848993
-0.0849173
-0.0912169
-0.0987834
-0.107855
-0.11875
-0.152124
-0.152151
-0.118765
-0.107869
-0.0987952
-0.0912266
-0.0849235
-0.0560529
-0.0624623
-0.0701507
-0.0793789
-0.0904473
-0.120015
-0.120024
-0.0904504
-0.0793783
-0.0701515
-0.0624608
-0.0560514
-0.0310315
-0.0376916
-0.0456839
-0.0552747
-0.0667831
-0.101971
-0.0678407
-0.0359956
-0.0259362
-0.0175557
-0.0105682
-0.00475011
0.0212407
0.015335
0.00824953
-0.00025443
-0.0104591
-0.0395627
-0.0332148
0.00205344
0.0144208
0.0247253
0.0333161
0.0404719
0.0564424
0.0481392
0.0381782
0.0262291
0.0118852
-0.0253384
-0.0104377
0.0294556
0.0436504
0.055476
0.0653319
0.0735471
0.0883472
0.0813825
0.0730232
0.0629924
0.0509544
0.00797736
0.0329574
0.0668736
0.0766849
0.0848623
0.0916773
0.0973552
0.103698
0.0979241
0.0909938
0.0826809
0.0727036
0.047532
0.0439043
0.0725246
0.0843641
0.0942405
0.102478
0.109349
0.0561969
0.0517507
0.0466304
0.040644
0.0335531
0.0125927
-0.061222
-0.0522622
-0.0495295
-0.0467998
-0.0440679
-0.0413374
-0.142367
-0.14305
-0.143733
-0.144417
-0.145102
-0.149641
-0.246014
-0.243983
-0.243905
-0.243827
-0.243749
-0.243672
-0.34462
-0.34462
-0.344621
-0.344621
-0.344622
-0.345394
-0.445266
-0.445003
-0.445002
-0.445002
-0.445001
-0.445001
-0.545042
-0.545042
-0.545043
-0.545043
-0.545044
-0.545088
-0.645082
-0.64521
-0.645209
-0.645208
-0.645208
-0.645208
-0.746163
-0.746164
-0.746164
-0.746165
-0.746166
-0.74578
-0.847914
-0.848788
-0.848788
-0.848788
-0.848787
-0.848787
-0.846448
-0.846448
-0.846449
-0.84645
-0.846451
-0.845859
-0.948415
-0.949597
-0.949597
-0.949597
-0.949597
-0.949597
-0.945569
-0.945569
-0.94557
-0.945571
-0.945572
-0.944888
-0.94216
-0.942509
-0.942507
-0.942505
-0.942503
-0.942503
-0.940438
-0.940439
-0.940441
-0.940444
-0.940448
-0.940296
-0.939153
-0.939202
-0.939199
-0.939197
-0.939195
-0.939194
-0.938519
-0.93852
-0.938521
-0.938522
-0.938523
-0.938519
-0.938186
-0.938168
-0.938166
-0.938166
-0.938165
-0.938165
-0.937995
-0.937999
-0.938001
-0.938001
-0.938005
-0.938038
-0.937995
-0.937963
-0.937956
-0.93795
-0.937944
-0.937939
-0.938076
-0.938079
-0.938083
-0.938089
-0.9381
-0.938108
-0.938379
-0.938413
-0.938407
-0.938406
-0.938406
-0.938406
-0.939013
-0.939013
-0.939013
-0.939017
-0.939014
-0.938911
-0.939805
-0.940029
-0.940038
-0.940027
-0.940035
-0.940031
-0.94164
-0.941634
-0.941634
-0.941638
-0.941638
-0.941216
-0.9433
-0.944023
-0.944023
-0.944023
-0.94401
-0.944026
-0.947277
-0.947273
-0.947283
-0.947285
-0.947277
-0.946067
-0.949139
-0.951285
-0.951288
-0.951291
-0.95128
-0.951283
-0.955734
-0.955719
-0.955733
-0.955729
-0.955727
-0.951679
-0.967776
-0.9857
-0.991844
-0.996965
-1.00123
-1.00479
-1.00422
-1.00422
-1.00422
-1.00421
-1.00422
-1.00071
-1.00072
-1.00072
-1.00072
-1.00073
-0.996531
-0.996525
-0.996515
-0.996508
-0.996499
-0.991444
-0.991456
-0.991467
-0.991488
-0.991506
-0.985464
-0.985434
-0.985411
-0.985397
-0.985376
-0.969983
-0.969985
-0.970004
-0.970017
-0.970032
-1.05322
-1.05319
-1.05318
-1.05318
-1.05316
-1.05718
-1.05719
-1.05722
-1.05724
-1.05727
-1.05972
-1.0597
-1.05969
-1.05967
-1.05966
-1.06172
-1.06173
-1.06174
-1.06176
-1.06177
-1.06348
-1.06347
-1.06346
-1.06345
-1.06345
-1.06488
-1.06488
-1.06488
-1.0649
-1.06489
-1.06536
-1.0639
-1.06213
-1.06001
-1.05747
-1.05289
-1.05263
-1.05805
-1.06064
-1.06279
-1.06459
-1.06608
-1.00588
-1.0024
-0.998224
-0.993206
-0.987182
-0.965475
-0.90207
-0.904989
-0.929565
-0.937324
-0.943795
-0.949182
-0.953665
-0.910431
-0.904662
-0.897739
-0.889435
-0.879469
-0.851478
-0.807364
-0.841177
-0.853839
-0.864393
-0.873183
-0.880512
-0.865281
-0.856765
-0.846545
-0.834282
-0.819563
-0.78443
-0.783346
-0.818603
-0.833639
-0.846168
-0.856608
-0.865304
-0.865135
-0.856122
-0.845303
-0.832316
-0.816731
-0.781291
-0.780851
-0.817172
-0.832639
-0.845528
-0.856263
-0.86521
-0.865353
-0.865366
-0.865377
-0.865382
-0.865389
-0.856639
-0.856635
-0.856631
-0.856625
-0.856615
-0.84613
-0.846133
-0.846135
-0.846136
-0.846137
-0.833533
-0.833535
-0.83354
-0.833542
-0.833544
-0.818444
-0.818434
-0.818427
-0.818416
-0.818409
-0.780376
-0.780406
-0.780442
-0.780495
-0.780546
-0.71647
-0.7162
-0.71597
-0.715783
-0.71562
-0.630741
-0.63127
-0.631912
-0.632662
-0.633583
-0.634438
-0.541666
-0.537056
-0.534668
-0.532671
-0.531024
-0.529627
-0.420818
-0.423747
-0.427282
-0.431525
-0.4366
-0.447969
-0.370559
-0.352064
-0.344565
-0.33832
-0.333106
-0.328756
-0.270607
-0.275948
-0.282359
-0.290046
-0.29927
-0.325138
-0.317676
-0.288014
-0.278413
-0.270407
-0.263735
-0.258173
-0.220288
-0.226564
-0.234096
-0.243131
-0.253966
-0.292184
-0.251783
-0.218299
-0.207736
-0.198926
-0.191578
-0.185455
-0.184884
-0.19086
-0.198025
-0.206623
-0.216934
-0.249844
-0.212909
-0.18277
-0.172273
-0.163529
-0.156234
-0.150158
-0.150131
-0.156176
-0.163425
-0.172118
-0.182555
-0.212416
-0.212357
-0.182559
-0.172138
-0.163455
-0.15622
-0.150183
-0.116941
-0.123596
-0.131581
-0.141164
-0.152665
-0.189906
-0.189984
-0.152735
-0.141234
-0.131649
-0.123664
-0.117006
-0.117048
-0.12371
-0.131697
-0.141286
-0.152788
-0.190057
-0.190108
-0.152823
-0.141318
-0.131726
-0.123734
-0.117075
-0.117085
-0.123745
-0.131741
-0.141332
-0.152842
-0.190137
-0.19015
-0.15285
-0.141337
-0.131743
-0.123748
-0.117088
-0.0849233
-0.0912266
-0.0987948
-0.107874
-0.118768
-0.152162
-0.152166
-0.118767
-0.107871
-0.098789
-0.0912231
-0.084918
-0.0560445
-0.062454
-0.070147
-0.0793745
-0.0904487
-0.120026
-0.101971
-0.0667784
-0.0552694
-0.0456762
-0.0376812
-0.0310243
-0.0047399
-0.0105651
-0.0175491
-0.0259322
-0.035992
-0.0678399
-0.0395611
-0.0104538
-0.000248063
0.00825379
0.0153441
0.0212466
0.0404778
0.0333199
0.0247303
0.0144262
0.00205694
-0.0332151
-0.0253391
0.0118863
0.0262311
0.0381812
0.0481404
0.0564451
0.073545
0.0653318
0.0554784
0.0436509
0.0294573
-0.0104386
0.00797712
0.0509564
0.0629928
0.073025
0.0813822
0.0883465
0.097353
0.0916761
0.0848602
0.0766837
0.0668739
0.0329605
0.047537
0.0727039
0.0826801
0.0909943
0.097923
0.103696
0.109345
0.102476
0.0942394
0.084363
0.0725235
0.0439067
0.012598
0.0335533
0.0406444
0.0466307
0.0517505
0.0561975
-0.0413307
-0.04406
-0.0467911
-0.0495221
-0.0522538
-0.0612121
-0.149638
-0.145098
-0.144412
-0.143728
-0.143046
-0.142362
-0.243679
-0.243757
-0.243833
-0.243911
-0.24399
-0.246021
-0.345424
-0.344655
-0.344654
-0.344653
-0.344653
-0.344653
-0.445092
-0.445092
-0.445092
-0.445093
-0.445093
-0.445347
-0.545279
-0.545253
-0.545253
-0.545252
-0.545252
-0.545252
-0.645676
-0.645677
-0.645677
-0.645677
-0.645678
-0.645505
-0.746669
-0.747167
-0.747167
-0.747166
-0.747165
-0.747165
-0.85084
-0.85084
-0.850841
-0.850841
-0.850841
-0.849699
-0.956362
-0.957542
-0.957566
-0.95759
-0.957614
-0.957639
-0.953981
-0.953981
-0.953981
-0.953981
-0.95398
-0.952476
-1.06171
-1.06207
-1.06213
-1.0622
-1.06227
-1.06233
-1.0546
-1.0546
-1.0546
-1.0546
-1.0546
-1.0534
-1.04661
-1.04777
-1.04777
-1.04777
-1.04777
-1.04777
-1.04285
-1.04285
-1.04285
-1.04285
-1.04285
-1.04227
-1.03947
-1.03973
-1.03973
-1.03972
-1.03972
-1.03972
-1.0379
-1.0379
-1.0379
-1.0379
-1.0379
-1.03781
-1.03692
-1.03694
-1.03694
-1.03694
-1.03694
-1.03694
-1.03646
-1.03646
-1.03646
-1.03646
-1.03646
-1.03647
-1.03626
-1.03623
-1.03623
-1.03623
-1.03623
-1.03622
-1.03611
-1.03612
-1.03612
-1.03613
-1.03613
-1.03616
-1.03622
-1.0362
-1.0362
-1.03619
-1.03618
-1.03618
-1.0364
-1.0364
-1.0364
-1.03641
-1.0364
-1.0364
-1.03674
-1.0368
-1.0368
-1.0368
-1.0368
-1.0368
-1.03746
-1.03746
-1.03747
-1.03746
-1.03747
-1.03733
-1.03827
-1.03852
-1.03852
-1.03851
-1.03852
-1.03851
-1.04009
-1.0401
-1.04009
-1.04009
-1.04009
-1.03969
-1.04161
-1.04228
-1.04227
-1.04227
-1.04227
-1.04227
-1.04506
-1.04506
-1.04506
-1.04507
-1.04506
-1.04393
-1.04734
-1.04863
-1.04863
-1.04863
-1.04864
-1.04863
-1.13721
-1.1372
-1.13721
-1.1372
-1.13721
-1.13825
-1.13594
-1.13352
-1.13244
-1.13154
-1.13078
-1.13015
-1.12984
-1.12983
-1.12983
-1.12981
-1.12982
-1.13042
-1.13042
-1.13043
-1.13044
-1.13046
-1.13119
-1.13116
-1.13116
-1.13114
-1.13114
-1.132
-1.13201
-1.13202
-1.13204
-1.13206
-1.13312
-1.13309
-1.13306
-1.13305
-1.13303
-1.13512
-1.13512
-1.13514
-1.13515
-1.13517
-1.22036
-1.22034
-1.22033
-1.22032
-1.2203
-1.20693
-1.20695
-1.20698
-1.20699
-1.20703
-1.20262
-1.20259
-1.20258
-1.20256
-1.20255
-1.19889
-1.1989
-1.19891
-1.19892
-1.19894
-1.19588
-1.19587
-1.19586
-1.19585
-1.19585
-1.1933
-1.1933
-1.19331
-1.19332
-1.19333
-1.19361
-1.1962
-1.19929
-1.20301
-1.20746
-1.22275
-1.22547
-1.20734
-1.20302
-1.19943
-1.19643
-1.19392
-1.13072
-1.13136
-1.13213
-1.13305
-1.13416
-1.13704
-1.13761
-1.13441
-1.13334
-1.13246
-1.13171
-1.13109
-1.06658
-1.06515
-1.06342
-1.06135
-1.05887
-1.05303
-0.965434
-0.98931
-0.994926
-0.999602
-1.0035
-1.00675
-1.00721
-1.00407
-1.00029
-0.995751
-0.99031
-0.967262
-0.90758
-0.931651
-0.938934
-0.945004
-0.95006
-0.954268
-0.910637
-0.905187
-0.898648
-0.890797
-0.881382
-0.852539
-0.807859
-0.842688
-0.854939
-0.865146
-0.873653
-0.880742
-0.865394
-0.857048
-0.84703
-0.835009
-0.820585
-0.785383
-0.784297
-0.819638
-0.83437
-0.846645
-0.856875
-0.865396
-0.880748
-0.873314
-0.864398
-0.853693
-0.840848
-0.805574
-0.805049
-0.839341
-0.852618
-0.863678
-0.872895
-0.880574
-0.880333
-0.872137
-0.862299
-0.850491
-0.836319
-0.80254
-0.798788
-0.796124
-0.795965
-0.795828
-0.795724
-0.795628
-0.834208
-0.849014
-0.861353
-0.871637
-0.880203
-0.8802
-0.871641
-0.861363
-0.849029
-0.834231
-0.834255
-0.849044
-0.861372
-0.871641
-0.880194
-0.880187
-0.87164
-0.86138
-0.849064
-0.834287
-0.83432
-0.849086
-0.861389
-0.871642
-0.880178
-0.880222
-0.871721
-0.861515
-0.849267
-0.834566
-0.871409
-0.883697
-0.893943
-0.902473
-0.909582
-0.909257
-0.902121
-0.893563
-0.883282
-0.870953
-0.870898
-0.883248
-0.893544
-0.902117
-0.909259
-0.909258
-0.902108
-0.893519
-0.883223
-0.870859
-0.87082
-0.883198
-0.893506
-0.902101
-0.909258
-0.909259
-0.902094
-0.893497
-0.883178
-0.870794
-0.837181
-0.837305
-0.837449
-0.837618
-0.837827
-0.840866
-0.812908
-0.8079
-0.807317
-0.806832
-0.806424