/*--------------------------------*- C++ -*----------------------------------*\
| =========                 |                                                 |
| \\      /  F ield         | OpenFOAM: The Open Source CFD Toolbox           |
|  \\    /   O peration     | Version:  2212                                  |
|   \\  /    A nd           | Website:  www.openfoam.com                      |
|    \\/     M anipulation  |                                                 |
\*---------------------------------------------------------------------------*/
FoamFile
{
    version     2.0;
    format      ascii;
    arch        "LSB;label=32;scalar=64";
    class       volScalarField;
    location    "340";
    object      T;
}
// * * * * * * * * * * * * * * * * * * * * * * * * * * * * * * * * * * * * * //

dimensions      [0 0 0 1 0 0 0];

internalField   nonuniform List<scalar> 
248319
(
309.258
309.263
309.36
309.457
309.559
309.641
309.672
309.744
309.704
309.584
309.439
309.329
309.259
309.26
309.395
309.505
309.576
309.609
309.601
309.356
309.353
309.338
309.322
309.305
309.273
309.275
309.284
309.268
309.248
309.246
309.248
309.381
309.394
309.393
309.39
309.384
309.27
309.202
309.242
309.315
309.37
309.402
309.406
309.4
309.369
309.304
309.247
309.215
309.22
309.25
309.206
309.195
309.201
309.218
309.229
309.299
309.288
309.263
309.247
309.248
309.29
309.266
309.285
309.33
309.411
309.495
309.534
309.606
309.574
309.488
309.396
309.335
309.311
309.281
309.381
309.514
309.673
309.795
309.835
309.7
309.708
309.672
309.59
309.44
309.276
309.276
309.303
309.331
309.369
309.403
309.413
309.245
309.238
309.233
309.235
309.241
309.253
309.198
309.186
309.181
309.184
309.195
309.208
309.141
309.136
309.136
309.143
309.156
309.18
309.18
309.157
309.183
309.24
309.289
309.303
309.184
309.173
309.154
309.147
309.161
309.211
309.254
309.2
309.166
309.144
309.133
309.129
309.157
309.164
309.183
309.211
309.25
309.3
309.283
309.238
309.212
309.194
309.19
309.19
309.244
309.24
309.236
309.246
309.272
309.327
309.36
309.297
309.281
309.285
309.303
309.313
309.387
309.37
309.329
309.295
309.283
309.327
309.428
309.386
309.396
309.437
309.491
309.516
309.778
309.74
309.636
309.523
309.447
309.42
309.387
309.524
309.671
309.831
309.946
309.983
309.786
309.79
309.751
309.676
309.544
309.355
309.33
309.345
309.368
309.409
309.454
309.473
309.301
309.305
309.307
309.312
309.323
309.342
309.365
309.318
309.291
309.274
309.267
309.267
309.203
309.194
309.193
309.201
309.219
309.247
309.253
309.203
309.176
309.162
309.163
309.177
309.122
309.11
309.108
309.117
309.136
309.169
309.171
309.132
309.143
309.196
309.25
309.268
309.167
309.159
309.143
309.137
309.155
309.218
309.288
309.215
309.175
309.159
309.154
309.152
309.197
309.201
309.212
309.236
309.283
309.358
309.429
309.346
309.301
309.274
309.26
309.253
309.197
309.206
309.229
309.258
309.295
309.342
309.321
309.276
309.244
309.217
309.202
309.198
309.242
309.244
309.254
309.281
309.321
309.364
309.395
309.344
309.308
309.293
309.297
309.301
309.406
309.399
309.387
309.409
309.486
309.44
309.422
309.408
309.378
309.384
309.409
309.422
309.631
309.62
309.603
309.611
309.628
309.527
309.538
309.585
309.595
309.635
309.696
309.726
310.021
309.98
309.861
309.722
309.627
309.552
309.531
309.699
309.851
310.003
310.109
310.144
309.896
309.898
309.858
309.786
309.665
309.478
309.432
309.43
309.435
309.466
309.51
309.531
309.381
309.392
309.399
309.411
309.432
309.462
309.507
309.444
309.404
309.376
309.359
309.348
309.323
309.332
309.356
309.399
309.461
309.541
309.382
309.318
309.277
309.25
309.239
309.242
309.222
309.216
309.23
309.266
309.32
309.393
309.257
309.198
309.163
309.143
309.142
309.158
309.108
309.092
309.09
309.102
309.125
309.166
309.17
309.123
309.131
309.183
309.239
309.258
309.183
309.174
309.157
309.147
309.162
309.233
309.334
309.246
309.204
309.191
309.19
309.189
309.249
309.253
309.262
309.288
309.342
309.437
309.539
309.443
309.385
309.349
309.33
309.323
309.407
309.419
309.45
309.494
309.553
309.629
309.485
309.413
309.373
309.347
309.328
309.319
309.243
309.255
309.281
309.31
309.344
309.384
309.366
309.321
309.286
309.253
309.231
309.223
309.258
309.264
309.283
309.318
309.36
309.401
309.431
309.389
309.348
309.322
309.316
309.316
309.43
309.425
309.423
309.46
309.535
309.465
309.517
309.697
309.762
309.743
309.745
309.754
309.665
309.658
309.652
309.681
309.676
309.505
309.596
309.677
309.787
309.879
309.93
309.947
309.915
309.901
309.868
309.822
309.749
309.605
309.637
309.806
309.853
309.916
309.987
310.019
310.256
310.219
310.11
309.972
309.856
309.652
309.674
309.877
310.017
310.155
310.252
310.282
310.021
310.02
309.973
309.895
309.771
309.612
309.556
309.531
309.519
309.536
309.574
309.594
309.476
309.489
309.5
309.524
309.562
309.611
309.685
309.591
309.528
309.484
309.459
309.443
309.419
309.433
309.464
309.524
309.614
309.736
309.74
309.594
309.496
309.433
309.404
309.398
309.304
309.306
309.329
309.379
309.454
309.554
309.551
309.435
309.355
309.302
309.281
309.286
309.207
309.194
309.208
309.248
309.311
309.397
309.263
309.196
309.155
309.129
309.126
309.145
309.098
309.08
309.079
309.095
309.125
309.173
309.177
309.125
309.132
309.184
309.24
309.259
309.213
309.203
309.184
309.171
309.181
309.257
309.384
309.283
309.246
309.237
309.239
309.239
309.318
309.321
309.329
309.353
309.409
309.52
309.654
309.544
309.478
309.437
309.416
309.409
309.506
309.52
309.558
309.612
309.68
309.768
309.89
309.819
309.757
309.69
309.632
309.607
309.493
309.512
309.556
309.607
309.66
309.715
309.543
309.485
309.453
309.426
309.402
309.389
309.297
309.312
309.342
309.373
309.404
309.436
309.428
309.377
309.335
309.297
309.271
309.262
309.29
309.298
309.324
309.364
309.409
309.45
309.478
309.432
309.387
309.357
309.346
309.345
309.46
309.453
309.447
309.48
309.566
309.505
309.539
309.739
309.809
309.813
309.825
309.835
310.015
309.993
309.922
309.815
309.708
309.578
309.585
309.667
309.776
309.893
309.965
309.987
309.906
309.891
309.835
309.744
309.683
309.712
309.715
309.662
309.73
309.822
309.882
309.904
309.966
309.943
309.879
309.788
309.701
309.703
309.728
309.87
309.98
310.089
310.178
310.214
310.426
310.398
310.316
310.201
310.074
309.748
309.77
310.037
310.15
310.261
310.34
310.365
310.107
310.102
310.048
309.967
309.861
309.749
309.696
309.635
309.602
309.606
309.638
309.657
309.574
309.584
309.602
309.644
309.702
309.759
309.869
309.75
309.656
309.588
309.556
309.544
309.521
309.53
309.565
309.647
309.777
309.943
309.944
309.732
309.601
309.525
309.501
309.501
309.484
309.476
309.488
309.549
309.663
309.884
309.704
309.56
309.461
309.401
309.379
309.382
309.366
309.355
309.369
309.422
309.513
309.648
309.53
309.412
309.329
309.276
309.26
309.273
309.194
309.176
309.188
309.232
309.301
309.394
309.272
309.199
309.151
309.12
309.114
309.135
309.093
309.074
309.075
309.096
309.13
309.182
309.194
309.136
309.142
309.193
309.247
309.266
309.252
309.243
309.224
309.208
309.213
309.289
309.436
309.333
309.302
309.298
309.302
309.302
309.404
309.407
309.413
309.434
309.486
309.608
309.776
309.656
309.587
309.546
309.524
309.518
309.638
309.653
309.695
309.753
309.824
309.919
310.068
310.005
309.942
309.868
309.799
309.77
309.938
309.991
310.109
310.237
310.348
310.436
310.151
310.049
309.954
309.854
309.764
309.725
309.597
309.625
309.688
309.758
309.828
309.896
309.66
309.598
309.56
309.525
309.491
309.474
309.372
309.386
309.418
309.453
309.486
309.518
309.549
309.502
309.458
309.411
309.374
309.36
309.339
309.35
309.384
309.431
309.473
309.512
309.545
309.475
309.422
309.386
309.372
309.37
309.457
309.45
309.444
309.473
309.574
309.572
309.602
309.798
309.824
309.809
309.807
309.812
310.047
310.027
309.969
309.883
309.793
309.618
309.66
309.789
309.866
309.942
309.989
310.003
309.941
309.926
309.871
309.78
309.698
309.646
309.755
309.751
309.802
309.877
309.924
309.934
309.898
309.889
309.844
309.777
309.768
309.867
309.902
309.748
309.759
309.821
309.862
309.869
309.874
309.859
309.82
309.76
309.72
309.86
309.849
309.781
309.856
309.958
310.055
310.095
310.431
310.41
310.338
310.205
310.039
309.85
309.865
310.104
310.18
310.255
310.312
310.331
310.077
310.072
310.027
309.967
309.914
309.84
309.796
309.737
309.687
309.669
309.694
309.713
309.668
309.682
309.723
309.782
309.847
309.921
310.098
309.936
309.818
309.715
309.656
309.644
309.624
309.627
309.677
309.801
309.967
310.202
310.174
309.876
309.719
309.625
309.6
309.608
309.596
309.581
309.587
309.646
309.761
310.092
309.99
309.663
309.591
309.563
309.571
309.588
309.474
309.458
309.457
309.497
309.585
309.81
309.73
309.515
309.458
309.437
309.446
309.466
309.357
309.336
309.338
309.379
309.455
309.587
309.496
309.381
309.301
309.252
309.241
309.262
309.185
309.162
309.172
309.217
309.29
309.39
309.281
309.204
309.151
309.116
309.107
309.128
309.091
309.072
309.077
309.103
309.143
309.201
309.22
309.155
309.16
309.208
309.258
309.275
309.3
309.292
309.273
309.257
309.257
309.33
309.499
309.396
309.373
309.373
309.377
309.377
309.506
309.509
309.513
309.53
309.574
309.699
309.898
309.774
309.708
309.671
309.65
309.645
309.79
309.805
309.848
309.904
309.972
310.065
310.244
310.193
310.136
310.061
309.985
309.953
310.174
310.236
310.372
310.516
310.636
310.727
311.991
311.694
311.421
311.147
310.917
310.823
310.659
310.745
310.947
311.171
311.38
311.58
311.233
311.06
310.888
310.689
310.501
310.418
310.137
310.217
310.393
310.58
310.742
310.88
310.641
310.493
310.344
310.168
309.999
309.922
309.805
309.886
310.071
310.265
310.42
310.528
310.468
310.321
310.183
310.02
309.872
309.813
309.806
309.837
309.944
310.109
310.326
310.622
309.588
309.536
309.464
309.406
309.374
309.366
309.413
309.415
309.436
309.522
309.668
309.619
309.651
309.797
309.846
309.837
309.812
309.804
310.023
310.002
309.942
309.858
309.786
309.662
309.684
309.793
309.852
309.932
309.988
310.005
310.031
310.014
309.957
309.881
309.827
309.728
309.733
309.832
309.9
309.97
310.009
310.017
310.082
310.077
310.044
309.979
309.921
309.855
309.881
309.849
309.875
309.935
309.976
309.982
309.945
309.939
309.905
309.875
309.918
310.059
310.139
309.904
309.854
309.882
309.91
309.91
309.883
309.881
309.859
309.824
309.828
310.076
310.033
309.804
309.822
309.855
309.879
309.891
310.174
310.15
310.075
309.97
309.893
309.986
309.965
309.995
310.047
310.09
310.123
310.133
309.936
309.939
309.926
309.91
309.903
309.937
309.909
309.854
309.814
309.776
309.758
309.761
309.793
309.829
309.884
309.953
310.031
310.121
310.38
310.178
310.028
309.904
309.809
309.76
309.727
309.763
309.871
310.024
310.223
310.519
310.465
310.106
309.93
309.794
309.717
309.702
309.687
309.687
309.729
309.824
309.96
310.364
310.234
309.835
309.745
309.691
309.673
309.68
309.706
309.702
309.709
309.734
309.778
310.101
309.875
309.601
309.568
309.563
309.575
309.59
309.729
309.73
309.733
309.742
309.756
309.871
309.656
309.473
309.444
309.44
309.453
309.47
309.353
309.325
309.316
309.342
309.4
309.528
309.454
309.346
309.272
309.229
309.227
309.256
309.179
309.151
309.159
309.204
309.278
309.381
309.293
309.212
309.154
309.115
309.103
309.125
309.092
309.075
309.084
309.116
309.161
309.222
309.254
309.183
309.184
309.225
309.271
309.287
309.352
309.347
309.332
309.315
309.312
309.38
309.569
309.471
309.455
309.459
309.463
309.461
309.619
309.621
309.624
309.635
309.671
309.792
310.02
309.897
309.835
309.803
309.785
309.78
309.944
309.96
310.004
310.058
310.121
310.208
310.431
310.388
310.333
310.253
310.17
310.132
310.403
310.476
310.637
310.812
310.962
311.082
312.507
312.14
311.777
311.425
311.152
311.051
311.553
311.652
311.993
312.5
313.009
313.442
313.052
312.54
312.016
311.542
311.242
311.16
310.845
310.919
311.176
311.581
312.057
312.568
311.998
311.535
311.142
310.819
310.613
310.551
310.241
310.292
310.46
310.713
311.019
311.391
310.916
310.634
310.383
310.162
310.013
309.97
309.942
309.982
310.113
310.296
310.468
310.683
310.581
310.448
310.314
310.148
309.986
309.91
309.931
309.972
310.101
310.289
310.503
310.711
310.841
310.502
310.181
310.026
309.963
309.951
309.812
309.823
309.884
310.092
310.383
310.776
310.89
310.796
310.703
310.559
310.418
310.37
310.77
310.801
310.882
310.962
310.99
310.984
311.08
311.102
311.111
311.038
310.947
310.909
311.03
311.075
311.176
311.239
311.215
311.191
311.327
311.353
311.382
311.315
311.199
311.141
310.097
310.079
310.019
309.945
309.893
309.808
309.934
310
310.054
310.127
310.186
310.201
310.178
310.176
310.147
310.09
310.042
310
310.042
309.995
310.002
310.042
310.073
310.076
310.036
310.034
310.017
310.023
310.105
310.274
310.435
310.119
310.007
309.995
310.006
310
309.966
309.969
309.959
309.951
310.003
310.343
310.268
309.931
309.915
309.925
309.927
309.922
309.977
309.967
309.945
309.922
309.915
310.181
310.11
309.923
309.907
309.909
309.916
309.919
309.841
309.845
309.858
309.88
309.927
310.08
310.067
310.008
309.965
309.929
309.906
309.913
309.97
310.007
310.077
310.162
310.259
310.374
310.724
310.482
310.296
310.139
310.017
309.953
309.928
309.994
310.13
310.319
310.563
310.908
310.858
310.443
310.227
310.062
309.948
309.893
309.869
309.906
309.991
310.112
310.275
310.748
310.603
310.125
310.016
309.939
309.887
309.865
309.93
309.932
309.953
309.99
310.047
310.455
310.59
310.466
310.469
310.478
310.496
310.527
310.1
310.089
310.086
310.09
310.097
310.187
310.711
311.101
311.197
311.271
311.332
311.384
310.693
310.67
310.644
310.613
310.568
310.288
309.792
309.821
309.822
309.823
309.828
309.838
309.357
309.33
309.313
309.322
309.356
309.482
309.406
309.308
309.244
309.211
309.218
309.255
309.177
309.144
309.149
309.192
309.265
309.368
309.306
309.223
309.161
309.117
309.103
309.124
309.096
309.081
309.096
309.134
309.184
309.25
309.295
309.217
309.212
309.244
309.285
309.3
309.407
309.405
309.395
309.381
309.375
309.437
309.643
309.553
309.544
309.55
309.553
309.551
309.733
309.735
309.736
309.741
309.771
309.886
310.134
310.013
309.957
309.93
309.914
309.909
310.082
310.1
310.144
310.196
310.255
310.336
310.597
310.555
310.499
310.415
310.323
310.278
310.554
310.644
310.831
311.035
311.223
311.395
312.78
312.376
311.973
311.582
311.281
311.168
311.79
311.893
312.221
312.711
313.192
313.573
313.931
313.257
312.76
312.33
312.128
312.128
313.444
316.176
325.839
358.23
435.96
428.685
347.516
320.346
314.333
312.815
312.626
313.281
316.183
335.786
417.832
405.587
328.638
314.865
313.304
312.95
313.441
313.724
314.872
326.18
399.29
402.975
327.6
315.61
314.443
314.164
315.344
315.671
317.298
332.596
413.489
411.525
331.903
317.317
315.843
315.614
315.45
315.457
315.656
315.887
317.116
330.019
406.744
401.207
327.122
315.827
314.753
314.47
313.768
314.176
315.398
327.15
402.401
410.623
329.897
315.42
313.721
313.189
312.92
313.84
317.046
338.351
426.348
443.588
355.425
323.813
316.12
313.806
316.298
321.277
334.927
373.131
453.629
455.255
375.446
335.181
320.969
315.98
313.981
316.311
324.592
358.508
446.37
430.465
341.269
317.855
314.222
313.292
313.544
314.103
316.04
332.32
415.841
407.422
328.989
315.851
314.47
314.07
314.711
315.016
316.149
328.163
404.319
404.628
328.995
317.106
316.058
315.86
315.697
314.478
313.762
313.17
312.726
312.618
312.803
312.141
312.178
312.424
312.938
313.563
314.185
313.699
313.028
312.423
311.96
311.749
311.721
311.255
311.274
311.433
311.818
312.361
313.043
312.275
311.677
311.24
310.951
310.848
310.841
310.395
310.404
310.464
310.635
310.917
311.498
310.869
310.551
310.366
310.24
310.186
310.178
310.079
310.109
310.214
310.4
310.638
310.922
310.667
310.379
310.22
310.072
309.986
309.965
310.006
310.017
310.077
310.206
310.391
310.95
310.899
310.5
310.266
310.089
309.989
309.963
310.01
310.018
310.066
310.187
310.402
311.135
311.427
310.774
310.541
310.368
310.305
310.296
310.354
310.39
310.524
310.734
310.857
310.948
311.062
311.078
311.058
311.006
310.953
310.931
311.111
311.131
311.186
311.227
311.224
311.174
311.302
311.366
311.387
311.349
311.285
311.258
311.421
311.453
311.529
311.567
311.535
311.458
311.659
311.743
311.781
311.733
311.636
311.593
311.275
311.346
311.488
311.571
311.547
311.498
311.72
311.77
311.79
311.688
311.516
311.426
310.363
310.348
310.296
310.23
310.182
310.112
310.204
310.222
310.258
310.302
310.321
310.316
310.218
310.218
310.201
310.18
310.192
310.241
310.518
310.319
310.211
310.174
310.17
310.163
310.136
310.146
310.158
310.215
310.397
310.754
310.645
310.234
310.131
310.105
310.099
310.088
310.035
310.045
310.054
310.063
310.111
310.542
310.425
310.048
310.023
310.019
310.014
310.012
309.949
309.952
309.967
309.993
310.026
310.316
310.28
310.113
310.029
309.965
309.926
309.916
310.088
310.083
310.115
310.161
310.213
310.27
310.67
310.505
310.391
310.291
310.207
310.16
310.166
310.255
310.411
310.607
310.839
311.113
311.335
310.926
310.633
310.401
310.23
310.141
310.122
310.193
310.341
310.55
310.815
311.285
311.169
310.632
310.427
310.269
310.161
310.111
310.13
310.154
310.22
310.321
310.457
311.01
310.867
310.393
310.321
310.274
310.247
310.245
310.982
310.931
310.897
310.875
310.865
311.039
311.652
311.896
312.015
312.107
312.167
312.196
311.875
311.821
311.745
311.644
311.516
311.148
311.333
311.555
311.622
311.602
311.502
311.365
311.372
311.469
311.533
311.53
311.451
311.067
310.742
311.175
311.233
311.244
311.219
311.175
310.532
310.544
310.548
310.539
310.51
310.218
309.57
309.554
309.548
309.55
309.562
309.579
309.259
309.218
309.201
309.22
309.268
309.363
309.349
309.249
309.18
309.141
309.14
309.178
309.126
309.105
309.123
309.171
309.237
309.32
309.281
309.209
309.154
309.111
309.091
309.102
309.313
309.3
309.263
309.243
309.256
309.34
309.496
309.441
309.449
309.46
309.463
309.462
309.639
309.643
309.64
309.631
309.633
309.715
309.97
309.86
309.838
309.838
309.839
309.837
310.017
310.022
310.035
310.056
310.106
310.222
310.407
310.337
310.29
310.246
310.203
310.184
310.373
310.424
310.515
310.591
310.633
310.645
311.48
311.304
311.12
310.923
310.737
310.643
311.189
311.338
311.679
312.103
312.524
312.939
313.812
314.074
314.376
315.872
330.741
413.99
415.31
419.677
422.998
421.106
419.779
345.417
343.137
338.805
333.742
330.844
315.281
315.452
316.666
319.037
321.04
314.54
313.796
313.216
313.28
313.658
313.336
312.863
312.529
312.511
312.684
311.87
311.951
312.198
312.619
313.112
313.087
312.57
312.13
311.821
311.671
312.142
312.242
312.45
312.823
313.297
313.892
313.368
313.169
313.205
313.222
317.113
317.149
316.938
317.301
318.032
342.005
341.949
339.401
336.513
334.623
405.572
410.75
422.592
428.824
429.16
427.214
340.232
318.129
314.604
314.06
313.828
314.872
315.227
315.932
319.905
342.709
428.613
417.303
333.935
317.327
315.523
315.156
314.869
315.032
315.694
316.045
316.455
318.882
338.344
421.208
424.577
339.362
319.171
316.755
316.504
316.433
316.313
316.479
316.72
318.44
334.909
416.621
409.4
331.394
318.07
316.878
316.704
316.577
316.777
316.891
317.049
318.287
332.026
410.27
404.466
329.257
317.28
316.233
316.058
315.912
314.805
315.021
315.258
316.351
328.208
403.238
404.778
411.929
424.779
439.597
449.87
370.318
353.934
338.882
331.291
328.551
316.016
316.101
317.538
322.714
330.495
318.614
315.691
314.334
314.344
314.745
314.411
313.89
313.561
313.879
314.998
312.907
312.888
313.09
313.565
314.143
313.965
313.385
312.865
312.578
312.52
312.098
312.14
312.368
312.829
313.402
314.011
313.23
312.593
312.069
311.705
311.57
311.562
311.004
310.996
311.039
311.26
311.657
312.277
311.446
310.902
310.668
310.556
310.549
310.562
310.312
310.296
310.3
310.374
310.519
310.838
311.492
310.594
310.403
310.347
310.377
310.402
310.23
310.224
310.24
310.35
310.592
311.529
311.382
310.636
310.33
310.174
310.121
310.115
310.209
310.198
310.201
310.297
310.581
312.098
311.276
310.341
310.178
310.098
310.08
310.083
310.324
310.317
310.328
310.414
310.63
311.744
312.344
311.329
311.154
311.021
310.961
310.954
310.913
310.942
311.022
311.11
311.181
311.776
312.154
311.404
311.347
311.307
311.277
311.267
311.439
311.454
311.496
311.545
311.617
312.574
313.05
311.865
311.763
311.695
311.638
311.617
311.818
311.845
311.923
312.019
312.157
313.595
314.229
312.51
312.323
312.187
312.08
312.043
311.799
311.855
311.98
312.05
312.018
311.919
312.271
312.364
312.383
312.277
312.111
312.035
311.627
311.737
311.953
312.092
312.09
312.012
310.353
310.396
310.448
310.508
310.548
310.554
310.514
310.523
310.521
310.495
310.473
310.46
310.48
310.408
310.389
310.395
310.397
310.386
310.348
310.363
310.394
310.463
310.598
310.801
311.111
310.699
310.468
310.363
310.322
310.3
310.255
310.269
310.293
310.354
310.503
310.988
310.865
310.346
310.261
310.225
310.201
310.183
310.123
310.132
310.154
310.178
310.228
310.71
310.569
310.191
310.153
310.124
310.104
310.097
310.102
310.112
310.16
310.233
310.318
310.52
310.508
310.418
310.357
310.303
310.266
310.269
310.389
310.456
310.565
310.69
310.832
310.995
311.526
311.181
310.911
310.68
310.494
310.382
310.371
310.486
310.696
310.975
311.322
311.782
311.721
311.18
310.871
310.624
310.445
310.355
310.364
310.423
310.551
310.734
310.967
311.584
311.419
310.8
310.644
310.528
310.451
310.421
310.615
310.613
310.639
310.688
310.767
311.292
311.519
311.283
311.291
311.319
311.363
311.427
312.382
312.407
312.395
312.35
312.271
312.168
311.362
311.505
311.512
311.445
311.33
311.212
311.286
311.432
311.553
311.606
311.579
311.459
310.153
310.333
310.384
310.346
310.249
310.132
310.396
310.546
310.669
310.722
310.688
310.557
310.786
310.961
310.991
310.933
310.803
310.645
310.819
310.944
311.049
311.1
311.084
310.805
310.54
310.842
310.852
310.826
310.773
310.709
309.981
309.989
309.993
309.991
309.981
309.843
309.352
309.267
309.236
309.227
309.245
309.28
309.182
309.14
309.136
309.171
309.234
309.325
309.331
309.243
309.176
309.127
309.108
309.13
309.111
309.105
309.132
309.182
309.243
309.314
309.385
309.296
309.274
309.282
309.317
309.331
309.512
309.519
309.524
309.516
309.505
309.551
309.777
309.704
309.708
309.721
309.724
309.719
309.923
309.925
309.921
309.914
309.928
310.034
310.275
310.161
310.119
310.108
310.099
310.094
310.249
310.268
310.304
310.334
310.367
310.418
310.58
310.597
310.591
310.544
310.467
310.416
310.711
310.806
310.979
311.149
311.287
311.389
313.051
312.604
312.161
311.712
311.333
311.145
311.097
311.313
311.727
312.195
312.65
313.099
313.867
314.217
315.635
322.574
351.394
437.032
434.901
427.594
412.643
397.612
393.941
326.736
328.799
334.377
343.214
349.487
320.572
317.421
315.893
314.964
314.399
312.279
312.536
312.866
313.297
314.262
313.239
312.726
312.287
311.943
311.728
311.473
311.677
312.044
312.514
313.051
313.167
312.488
311.961
311.545
311.312
311.477
311.738
312.161
312.776
313.953
316.534
313.834
312.627
312.118
311.791
313.125
313.736
315.146
319.307
325.852
356.174
344.077
331.503
325.065
323.378
390.539
393.755
410.243
425.285
436.041
444.374
366.401
333.074
320.71
316.305
314.314
315.71
318.72
323.998
337.269
370.68
446.806
437.977
353.74
324.914
317.402
315.582
314.928
315.631
316.434
318.743
327.362
357.911
441.048
431.804
346.792
321.742
316.827
315.89
315.55
315.548
315.794
316.21
318.632
337.862
420.588
421.613
339.516
319.401
316.74
316.316
316.108
316.204
316.556
317.017
319.842
340.844
423.552
431.166
344.024
320.567
317.449
317.122
317.047
316.966
317.126
317.384
319.326
337.243
420.5
411.292
332.589
318.826
317.597
317.429
317.31
317.569
317.677
317.835
319.195
334.031
413.893
424.036
339.052
320.029
317.996
317.808
317.693
316.89
316.998
317.176
318.9
335.87
418.868
410.434
331.594
317.667
316.368
316.202
316.082
315.109
314.515
313.96
313.457
313.175
313.128
314.43
317.284
327.838
363.846
442.757
436.134
352.218
322.077
315.488
313.919
313.842
314.545
317.806
339.974
426.273
415.838
332.9
316.47
314.62
314.224
314.73
315.009
316.367
330.103
409.185
407.724
329.811
316.68
315.464
315.264
315.45
315.648
317.2
332.942
415.787
420.968
334.798
317.122
315.24
314.959
314.474
314.901
317.466
338.503
427.405
431.977
344.899
318.916
314.829
314.084
314.029
315.484
322.034
351.178
431.624
432.132
355.132
324.962
316.422
314.222
313.354
313.422
313.72
314.227
314.772
315.327
315.057
314.717
314.31
313.86
313.512
313.385
313.214
313.339
313.69
314.159
314.595
314.95
314.396
313.96
313.507
313.093
312.851
312.797
312.209
312.222
312.349
312.689
313.143
313.617
312.382
311.916
311.628
311.464
311.441
311.466
311.261
311.26
311.324
311.527
311.848
312.257
311.404
311.05
310.864
310.785
310.803
310.836
310.649
310.64
310.668
310.795
311.024
311.37
311.924
311.179
310.827
310.689
310.69
310.711
310.917
310.899
310.926
311.187
311.877
313.501
312.828
310.726
310.484
310.458
310.522
310.558
310.355
310.332
310.306
310.373
310.629
312.629
313.548
310.752
310.509
310.476
310.53
310.565
310.428
310.405
310.379
310.441
310.69
312.912
313.767
311.663
311.247
311.039
311.008
311.02
311.957
311.953
311.962
312.028
312.264
314.55
312.916
311.697
311.59
311.558
311.56
311.565
311.76
311.757
311.768
311.821
311.969
313.516
314.174
312.267
312.066
311.986
311.959
311.959
312.172
312.179
312.227
312.342
312.604
314.891
315.636
312.982
312.653
312.497
312.427
312.415
312.691
312.712
312.809
313.012
313.408
316.327
314.953
312.915
312.671
312.489
312.35
312.304
312.613
312.671
312.853
313.098
313.414
315.794
312.743
312.828
312.808
312.641
312.419
312.322
311.865
311.999
312.263
312.447
312.469
312.397
310.681
310.726
310.772
310.813
310.827
310.819
310.75
310.77
310.793
310.792
310.788
310.79
310.788
310.709
310.677
310.659
310.637
310.615
310.566
310.595
310.656
310.756
310.916
311.142
311.516
311.057
310.775
310.621
310.544
310.51
310.456
310.478
310.528
310.628
310.822
311.401
311.242
310.62
310.5
310.437
310.395
310.372
310.279
310.296
310.334
310.38
310.456
311.049
310.865
310.384
310.334
310.3
310.273
310.264
310.309
310.322
310.38
310.462
310.533
310.802
310.788
310.682
310.61
310.544
310.495
310.489
310.626
310.713
310.847
311
311.173
311.374
311.982
311.582
311.265
310.99
310.765
310.626
310.621
310.758
311.004
311.327
311.727
312.254
312.17
311.554
311.206
310.926
310.723
310.619
310.661
310.724
310.863
311.064
311.321
312.007
311.84
311.172
311.007
310.887
310.81
310.783
311.072
311.063
311.083
311.129
311.208
311.76
312.031
311.739
311.743
311.77
311.816
311.881
312.505
312.569
312.62
312.634
312.606
312.628
311.133
311.399
311.406
311.351
311.275
311.191
309.798
309.84
309.877
309.894
309.847
309.545
309.76
310.008
310.069
310.044
309.98
309.904
308.979
309.045
309.106
309.143
309.139
309.087
309.35
309.447
309.48
309.452
309.379
309.289
309.652
309.773
309.872
309.911
309.878
309.768
310.231
310.321
310.336
310.275
310.151
310.005
310.327
310.471
310.602
310.677
310.684
310.545
310.594
310.79
310.771
310.709
310.617
310.517
310.197
310.233
310.263
310.282
310.283
310.11
309.408
309.358
309.342
309.338
309.351
309.374
309.189
309.143
309.132
309.16
309.216
309.298
309.339
309.253
309.185
309.134
309.115
309.137
309.122
309.119
309.151
309.206
309.271
309.346
309.429
309.336
309.307
309.304
309.335
309.347
309.561
309.569
309.581
309.576
309.564
309.6
309.826
309.761
309.771
309.788
309.792
309.787
309.986
309.987
309.98
309.965
309.973
310.077
310.299
310.184
310.149
310.148
310.146
310.142
310.278
310.294
310.316
310.329
310.348
310.395
310.459
310.506
310.536
310.524
310.469
310.424
310.745
310.833
310.977
311.101
311.187
311.241
311.065
311.038
310.999
310.924
310.818
310.738
311.056
311.282
311.709
312.181
312.638
313.113
312.805
312.417
312.009
311.574
311.179
310.983
310.994
311.196
311.7
312.328
313.338
315.177
316.569
313.742
312.427
311.717
311.2
311.017
311.216
311.443
311.869
312.643
314.651
318.838
313.768
311.957
311.522
311.305
311.663
311.822
312.502
316.575
325.242
339.868
325.939
316.788
314.706
315.176
340.757
337.326
344.521
358.448
374.913
452.067
444.997
436.641
425.611
429.223
449.167
444.461
448.016
450.894
454.374
380.214
370.434
362.393
359.343
365.394
323.526
321.457
324.122
333.213
345.272
330.342
320.177
314.281
312.745
312.844
311.396
311.551
312.235
315.315
322.528
316.15
312.936
311.83
311.428
311.238
311.064
311.192
311.642
312.502
314.588
321.412
326.832
341.71
350.602
362.98
390.152
456.965
457.665
392.491
369.441
359.653
351.607
332.608
325.918
341.446
355.588
377.499
412.46
467.967
457.058
390.257
354.706
336.222
326.474
318.155
319.024
329.085
339.564
358.98
395.474
460.835
450.11
375.142
340.621
326.297
320.297
316.601
317.191
320.995
327.217
342.041
377.281
451.733
442.455
359.891
328.518
319.444
316.999
316.18
316.075
316.366
317.269
322.331
348.177
433.054
433.131
348.319
322.689
317.737
316.879
316.616
316.582
316.778
317.193
319.788
339.678
421.674
423.668
340.972
320.229
317.479
317.019
316.633
317.538
317.599
317.915
320.88
343.698
430.673
419.186
336.733
319.693
317.908
317.659
317.491
317.989
318.093
318.249
319.35
332.258
409.739
413.884
334.377
319.866
318.585
318.448
318.337
318.509
318.61
318.773
320.78
339.893
425.028
432.865
345.457
321.931
318.967
318.76
318.729
317.875
317.922
318.155
321.072
344.207
431.52
423.957
338.957
319.477
317.284
317.104
317.061
316.262
316.325
316.47
317.992
333.48
414.538
414.664
333.823
318.079
316.521
316.391
316.341
315.435
314.924
314.433
313.954
313.648
313.576
313.937
315.095
319.983
340.586
412.21
412.471
340.033
319.13
314.814
313.933
314.141
314.677
318.059
339.868
418.852
421.707
337.683
317.322
314.906
314.575
315.054
315.286
317.099
334.616
418.356
415.473
333.186
317.277
315.719
315.545
315.635
315.819
317.866
337.472
425.963
428.174
343.728
320.153
315.83
315.189
314.69
315.305
319.593
343.694
426.426
416.428
338.849
318.154
314.723
314.226
313.978
314.573
317.647
333.837
402.016
397.364
331.656
317.351
314.537
313.934
313.785
313.841
314.113
314.57
315.057
315.57
315.457
315.052
314.692
314.328
314.036
313.928
313.734
313.839
314.136
314.515
314.869
315.236
314.915
314.608
314.258
313.876
313.588
313.493
313.037
313.069
313.257
313.618
314.004
314.366
313.508
312.88
312.576
312.367
312.281
312.277
312.064
312.095
312.236
312.519
312.89
313.332
313.938
312.917
312.359
312.043
311.939
311.941
311.585
311.582
311.659
311.931
312.425
313.259
312.924
312.07
311.593
311.353
311.302
311.318
310.952
310.928