/*--------------------------------*- C++ -*----------------------------------*\
| =========                 |                                                 |
| \\      /  F ield         | OpenFOAM: The Open Source CFD Toolbox           |
|  \\    /   O peration     | Version:  2212                                  |
|   \\  /    A nd           | Website:  www.openfoam.com                      |
|    \\/     M anipulation  |                                                 |
\*---------------------------------------------------------------------------*/
FoamFile
{
    version     2.0;
    format      ascii;
    arch        "LSB;label=32;scalar=64";
    class       volScalarField;
    location    "423";
    object      p;
}
// * * * * * * * * * * * * * * * * * * * * * * * * * * * * * * * * * * * * * //

dimensions      [0 2 -2 0 0 0 0];

internalField   nonuniform List<scalar> 
247120
(
0
0.0211714
0.0431748
0.0550184
0.0648793
0.0731055
0.0799637
0.140181
0.131433
0.120941
0.108356
0.0932631
0.0587912
0.0614146
0.094752
0.111125
0.124781
0.136166
0.145659
0.153613
0.14446
0.133481
0.120312
0.104521
0.11437
0.129156
0.141486
0.151765
0.160334
0.161257
0.152604
0.142226
0.129776
0.114844
0.115239
0.130292
0.142841
0.153302
0.162024
0.162665
0.153883
0.143352
0.130719
0.115568
0.115841
0.131075
0.14378
0.154371
0.1632
0.163281
0.162762
0.16214
0.161395
0.1605
0.152107
0.152922
0.1536
0.154166
0.15464
0.144271
0.143854
0.143356
0.142758
0.142037
0.129956
0.13056
0.131063
0.131481
0.13183
0.116904
0.116635
0.116313
0.115925
0.115459
0.0795221
0.0797861
0.0800064
0.0801895
0.0803427
0.0176979
0.017655
0.0176023
0.0175385
0.0174618
0.0114521
0.0219153
0.0269369
0.027032
0.0271121
0.0271792
0.0272349
0.00353547
0.00349119
0.00343876
0.00337802
0.0033042
0.0010139
0.0296138
0.0531728
0.0666007
0.0778001
0.087131
0.0949181
0.101049
0.101729
0.102296
0.102769
0.10316
0.0953999
0.0950405
0.0946107
0.0940958
0.0934752
0.0844014
0.0849466
0.085403
0.0857828
0.0861009
0.0749412
0.0746711
0.0743509
0.0739667
0.073505
0.0604437
0.060807
0.0611078
0.0613576
0.0615644
0.0340862
0.0339658
0.0338198
0.0336461
0.0334352
0.0765469
0.0768131
0.0770367
0.0772245
0.0773789
0.0701335
0.0729789
0.108054
0.124158
0.13758
0.148771
0.158101
0.155577
0.145515
0.133443
0.118961
0.101584
0.0640821
0.0636465
0.10221
0.119959
0.134751
0.14708
0.157355
0.159685
0.149801
0.137943
0.123719
0.106651
0.112463
0.128047
0.141033
0.151858
0.160879
0.161585
0.152502
0.141605
0.128531
0.112842
0.11316
0.128935
0.142082
0.153039
0.162171
0.162662
0.153488
0.142479
0.129271
0.113423
0.113642
0.129552
0.142811
0.153861
0.16307
0.163015
0.153583
0.142265
0.128689
0.112395
0.112225
0.128474
0.142014
0.153302
0.162709
0.16234
0.152965
0.141715
0.128218
0.112022
0.111776
0.127908
0.141353
0.152559
0.161897
0.161367
0.152073
0.140919
0.127537
0.111481
0.105883
0.12328
0.137776
0.149859
0.15993
0.157308
0.146938
0.134495
0.119565
0.101648
0.0623681
0.0684975
0.0725032
0.0726719
0.0728113
0.0729273
0.0730245
0.0104952
0.010468
0.0104361
0.0103992
0.0103526
0.00370553
0.00646193
0.0131242
0.0131834
0.0132314
0.0132735
0.0133071
-0.063551
-0.0635533
-0.0635583
-0.0635632
-0.0635693
-0.0687425
-0.0632709
-0.0589253
-0.0589152
-0.058906
-0.0588979
-0.0588919
-0.0557525
-0.0557728
-0.0557973
-0.0558277
-0.0558666
-0.0599189
-0.0502459
-0.0403574
-0.0328346
-0.0265718
-0.0213356
-0.0169809
-0.0162824
-0.0159731
-0.0157177
-0.0155155
-0.0153447
-0.0194593
-0.0196468
-0.0198746
-0.020143
-0.0204623
-0.0254809
-0.0251395
-0.0248487
-0.0246105
-0.0244127
-0.0303535
-0.0305624
-0.0308191
-0.0311233
-0.0314867
-0.0386992
-0.0383016
-0.0379759
-0.0377008
-0.037468
-0.0479029
-0.048043
-0.0482095
-0.0484093
-0.0486504
-0.143886
-0.14362
-0.143402
-0.14322
-0.143066
-0.1388
-0.139087
-0.139433
-0.139848
-0.140344
-0.137652
-0.137264
-0.136943
-0.136675
-0.13645
-0.134502
-0.134668
-0.134871
-0.135115
-0.135401
-0.133525
-0.133309
-0.133132
-0.13299
-0.13287
-0.131507
-0.131591
-0.1317
-0.13182
-0.13196
-0.132138
-0.133759
-0.135709
-0.138057
-0.140862
-0.145343
-0.147248
-0.140688
-0.137969
-0.135705
-0.133807
-0.132224
-0.0189849
-0.0232749
-0.0284261
-0.0345957
-0.0419957
-0.0532325
0.0241278
0.0455474
0.0587287
0.0697084
0.0788654
0.0864994
0.0068345
0.0260591
0.0153936
0.00202028
-0.0108562
0.00526207
0.00825256
0.0039169
-0.0001204
-0.00250572
-0.00377874
0.0616272
0.101396
0.119382
0.13437
0.146859
0.157268
0.160003
0.149858
0.137686
0.123078
0.105548
0.111119
0.127367
0.140909
0.152192
0.161596
0.162046
0.152606
0.141278
0.127681
0.111368
0.111575
0.127942
0.141583
0.15295
0.162421
0.162735
0.153235
0.141835
0.128159
0.111747
0.111891
0.128341
0.142048
0.153475
0.162996
0.162987
0.153433
0.141968
0.128213
0.111707
0.111571
0.128039
0.141764
0.153204
0.162735
0.162435
0.15293
0.141524
0.127834
0.11141
0.111215
0.127589
0.141235
0.152603
0.162078
0.161649
0.152209
0.140884
0.127292
0.110982
0.105451
0.123018
0.137658
0.149856
0.160022
0.157267
0.146842
0.134333
0.119321
0.101306
0.0613295
0.0673398
0.0712179
0.0713509
0.0714633
0.071553
0.0716278
0.00843297
0.00841346
0.00838878
0.00835853
0.00832235
0.00162203
0.00225292
0.00890031
0.00893998
0.00897159
0.00899737
0.00901947
-0.0681239
-0.0681264
-0.0681288
-0.0681313
-0.0681349
-0.0733513
-0.0717492
-0.0665435
-0.0665386
-0.0665349
-0.0665312
-0.0665288
-0.156597
-0.156597
-0.156597
-0.156597
-0.156597
-0.160597
-0.158099
-0.154194
-0.154193
-0.154194
-0.154193
-0.154193
-0.151014
-0.151015
-0.151017
-0.151019
-0.15102
-0.154799
-0.15092
-0.147579
-0.147567
-0.147555
-0.147547
-0.147541
-0.249599
-0.249601
-0.249605
-0.249609
-0.249613
-0.25157
-0.248794
-0.247036
-0.246234
-0.245581
-0.245028
-0.244578
-0.245197
-0.245153
-0.245116
-0.245077
-0.245042
-0.245343
-0.245392
-0.24546
-0.245537
-0.245628
-0.246144
-0.245996
-0.245875
-0.245774
-0.245686
-0.246109
-0.246223
-0.24637
-0.246547
-0.246751
-0.247495
-0.247206
-0.246969
-0.246773
-0.246605
-0.247838
-0.247929
-0.24804
-0.248169
-0.248327
-0.354909
-0.35485
-0.354801
-0.35476
-0.354727
-0.354952
-0.355014
-0.35509
-0.355177
-0.35528
-0.35513
-0.355052
-0.354991
-0.354941
-0.354896
-0.354844
-0.354873
-0.354912
-0.354951
-0.355
-0.3549
-0.35487
-0.354845
-0.354823
-0.354806
-0.354778
-0.354782
-0.354782
-0.354799
-0.35482
-0.353894
-0.353974
-0.354079
-0.354206
-0.354354
-0.354671
-0.354207
-0.352852
-0.35272
-0.352608
-0.352517
-0.352442
-0.243615
-0.244014
-0.244522
-0.245126
-0.245862
-0.249229
-0.249618
-0.245349
-0.24467
-0.244113
-0.243638
-0.243266
-0.132819
-0.134317
-0.136092
-0.138219
-0.140767
-0.148377
-0.055305
-0.0434473
-0.0365684
-0.0308292
-0.0260406
-0.0220564
-0.0247123
-0.0287152
-0.0335324
-0.0393013
-0.0462207
-0.059165
0.0169722
0.0391365
0.0504663
0.0598967
0.0677594
0.0743122
0.132379
0.124276
0.114551
0.102886
0.088894
0.0552166
0.0564761
0.0944957
0.110096
0.1231
0.133938
0.142969
0.151349
0.141813
0.130371
0.116642
0.100174
0.0608967
0.0608971
0.100585
0.117228
0.1311
0.14266
0.152293
0.152366
0.142652
0.130995
0.117007
0.100223
0.0599379
0.0593706
0.10007
0.116922
0.130966
0.142671
0.152425
0.152457
0.142688
0.130964
0.116898
0.100017
0.0591143
0.0590146
0.0999993
0.116891
0.130967
0.142698
0.152473
0.157271
0.146841
0.134327
0.119307
0.101283
0.0612012
0.0671746
0.0710329
0.0711629
0.0712724
0.0713612
0.0714362
0.111638
0.128165
0.141937
0.153414
0.16298
0.162733
0.153188
0.141735
0.127994
0.111504
0.111347
0.127791
0.141496
0.152917
0.162435
0.162078
0.152591
0.141208
0.127547
0.111155
0.110924
0.127253
0.14086
0.152199
0.161651
0.160021
0.149846
0.137636
0.122985
0.105403
0.105402
0.122985
0.137637
0.149847
0.160024
0.161651
0.152196
0.140852
0.127242
0.11091
0.11114
0.127536
0.1412
0.152588
0.162078
0.162436
0.152914
0.14149
0.127782
0.111332
0.111491
0.127985
0.141729
0.153184
0.162733
0.162978
0.15341
0.14193
0.128154
0.111623
0.0714477
0.0713715
0.0712805
0.0711723
0.0710418
0.0671765
0.00127325
0.00801811
0.00805391
0.00808339
0.00810919
0.00813126
0.00817609
0.00815522
0.00813075
0.00810129
0.00806553
0.00134666
-0.0744848
-0.0692369
-0.0692332
-0.0692308
-0.0692283
-0.0692259
-0.0688982
-0.0689007
-0.0689032
-0.0689057
-0.068908
-0.0741391
-0.162874
-0.158866
-0.158866
-0.158866
-0.158866
-0.158866
-0.158071
-0.158071
-0.158071
-0.158071
-0.158071
-0.162083
-0.25926
-0.256335
-0.256335
-0.256335
-0.256335
-0.256335
-0.255163
-0.255163
-0.255163
-0.255163
-0.255163
-0.258071
-0.25629
-0.253468
-0.253468
-0.253468
-0.253468
-0.253468
-0.251507
-0.251507
-0.251508
-0.251509
-0.251509
-0.254066
-0.356628
-0.355081
-0.355081
-0.35508
-0.35508
-0.35508
-0.354557
-0.354558
-0.354559
-0.354559
-0.354561
-0.355439
-0.45928
-0.459046
-0.459046
-0.459045
-0.459045
-0.459045
-0.460063
-0.460071
-0.460079
-0.460088
-0.460099
-0.460856
-0.460838
-0.460824
-0.460812
-0.460802
-0.460796
-0.460806
-0.460819
-0.460828
-0.460839
-0.460829
-0.460815
-0.460807
-0.460802
-0.4608
-0.460793
-0.460799
-0.460802
-0.460806
-0.460815
-0.460803
-0.460802
-0.4608
-0.460795
-0.460795
-0.563655
-0.563655
-0.563655
-0.563656
-0.563656
-0.563662
-0.563661
-0.56366
-0.563658
-0.563658
-0.563655
-0.563656
-0.563662
-0.563663
-0.56366
-0.563665
-0.563661
-0.56366
-0.563661
-0.563658
-0.563661
-0.563662
-0.563664
-0.563668
-0.563668
-0.562938
-0.562936
-0.562934
-0.562933
-0.562931
-0.561863
-0.561863
-0.561863
-0.561863
-0.561862
-0.561806
-0.562455
-0.562911
-0.562907
-0.562901
-0.562903
-0.562902
-0.561667
-0.561666
-0.561668
-0.561669
-0.561675
-0.561621
-0.458769
-0.458426
-0.458411
-0.458391
-0.458383
-0.458346
-0.457414
-0.457419
-0.457434
-0.457452
-0.457466
-0.458383
-0.354094
-0.352013
-0.351881
-0.351772
-0.35169
-0.351608
-0.351096
-0.351184
-0.351279
-0.351398
-0.351543
-0.354081
-0.250186
-0.245411
-0.244679
-0.244073
-0.243564
-0.243148
-0.133665
-0.13521
-0.137047
-0.139264
-0.141912
-0.150084
-0.151531
-0.142712
-0.139689
-0.137161
-0.135067
-0.133304
-0.0258446
-0.0301899
-0.0354141
-0.0416648
-0.049168
-0.0625824
0.0114679
0.0332448
0.0447494
0.0543273
0.0623046
0.0689514
0.122557
0.114773
0.105435
0.0942296
0.0807913
0.0483213
0.0492675
0.0855635
0.100386
0.112743
0.123039
0.131624
0.132717
0.123865
0.113241
0.100493
0.0852
0.0482473
0.0553877
0.0940889
0.110161
0.123556
0.134721
0.144023
0.144212
0.134828
0.123564
0.110051
0.0938367
0.0546123
0.0541869
0.0937567
0.110024
0.123582
0.134881
0.144296
0.144336
0.134909
0.123597
0.110023
0.0937331
0.0539933
0.0539137
0.0937209
0.110019
0.123602
0.134922
0.144356
0.144362
0.134926
0.123602
0.110015
0.0937127
0.0538831
0.0589808
0.0999947
0.11689
0.130968
0.142702
0.152479
0.157275
0.146844
0.134327
0.119307
0.101281
0.061175
0.0611696
0.101285
0.11931
0.134328
0.146847
0.157277
0.160025
0.149847
0.137637
0.122984
0.1054
0.110907
0.127241
0.140852
0.152196
0.161651
0.162078
0.152588
0.1412
0.127535
0.111137
0.111328
0.12778
0.14149
0.152914
0.162436
0.162733
0.153184
0.141729
0.127985
0.11149
0.111622
0.128154
0.14193
0.15341
0.162978
0.162978
0.15341
0.141931
0.128156
0.111623
0.111491
0.127986
0.14173
0.153184
0.162733
0.162436
0.152914
0.14149
0.127782
0.111332
0.11114
0.127536
0.1412
0.152588
0.162078
0.161651
0.152196
0.140852
0.127242
0.110911
0.105405
0.122986
0.137639
0.149849
0.160025
0.157277
0.146848
0.134329
0.11931
0.101287
0.0611777
0.0671834
0.0710536
0.0711827
0.0712909
0.0713806
0.0714556
0.00814549
0.00812586
0.00810114
0.00807065
0.00803623
0.0012729
0.00126077
0.00801453
0.00804897
0.00807949
0.00810549
0.00812631
-0.0693591
-0.0693603
-0.0693628
-0.0693665
-0.069369
-0.0746411
-0.0746087
-0.0693461
-0.0693424
-0.06934
-0.0693375
-0.0693351
-0.159416
-0.159416
-0.159416
-0.159416
-0.159416
-0.163425
-0.163257
-0.159251
-0.159251
-0.159251
-0.159251
-0.159251
-0.257427
-0.257427
-0.257427
-0.257427
-0.257427
-0.260326
-0.259952
-0.25704
-0.25704
-0.25704
-0.25704
-0.25704
-0.358553
-0.358553
-0.358553
-0.358553
-0.358553
-0.360536
-0.359986
-0.357991
-0.357991
-0.357991
-0.357991
-0.357991
-0.357156
-0.357156
-0.357156
-0.357156
-0.357156
-0.35913
-0.357959
-0.356098
-0.356098
-0.356098
-0.356098
-0.356098
-0.459169
-0.459169
-0.459169
-0.459169
-0.459169
-0.460284
-0.459616
-0.458793
-0.458793
-0.458793
-0.458793
-0.458793
-0.561382
-0.561382
-0.561382
-0.561382
-0.561382
-0.56175
-0.6627
-0.662576
-0.662576
-0.662576
-0.662576
-0.662576
-0.66301
-0.66301
-0.66301
-0.66301
-0.663011
-0.662864
-0.663463
-0.663852
-0.663853
-0.663851
-0.663853
-0.663851
-0.6644
-0.6644
-0.6644
-0.664399
-0.664399
-0.664401
-0.664401
-0.664401
-0.664401
-0.664402
-0.664403
-0.664403
-0.664403
-0.664402
-0.664402
-0.664404
-0.664404
-0.664404
-0.664404
-0.664402
-0.664403
-0.664401
-0.664401
-0.664398
-0.664396
-0.66385
-0.663849
-0.663849
-0.663849
-0.663849
-0.7634
-0.7634
-0.7634
-0.763399
-0.763398
-0.763745
-0.763742
-0.76374
-0.76374
-0.763741
-0.763739
-0.763739
-0.763739
-0.763739
-0.763739
-0.763744
-0.763744
-0.763744
-0.763744
-0.763745
-0.763737
-0.763736
-0.763736
-0.763736
-0.763736
-0.763744
-0.763744
-0.763744
-0.763744
-0.763745
-0.763404
-0.763396
-0.763401
-0.763399
-0.7634
-0.763143
-0.762689
-0.762834
-0.762831
-0.762835
-0.762828
-0.762835
-0.662949
-0.662947
-0.662945
-0.662951
-0.662946
-0.66279
-0.662408
-0.662312
-0.662309
-0.662311
-0.662308
-0.662311
-0.560818
-0.560825
-0.560825
-0.560831
-0.560828
-0.561179
-0.56087
-0.560272
-0.560277
-0.560273
-0.560267
-0.560265
-0.456797
-0.456808
-0.456827
-0.456841
-0.456861
-0.45813
-0.457683
-0.456151
-0.456124
-0.456098
-0.456086
-0.45606
-0.350278
-0.35038
-0.350514
-0.350665
-0.350848
-0.353779
-0.250386
-0.245051
-0.244186
-0.243463
-0.242867
-0.242366
-0.240392
-0.241083
-0.241894
-0.242884
-0.244062
-0.250062
-0.15211
-0.142477
-0.138718
-0.135588
-0.132976
-0.130795
-0.0235151
-0.0285297
-0.0345565
-0.0417668
-0.0504193
-0.0646858
0.00662371
0.0279744
0.0397824
0.0496176
0.0578059
0.0646247
0.110719
0.103583
0.095018
0.0847464
0.072426
0.0415594
0.0420199
0.0756523
0.0889429
0.10002
0.109254
0.116952
0.117884
0.109947
0.100425
0.0889981
0.0752885
0.0410994
0.0405357
0.075143
0.0889721
0.100498
0.110102
0.118107
0.132953
0.124023
0.113305
0.100445
0.0850158
0.0475878
0.0472489
0.0849761
0.100451
0.113348
0.124097
0.133053
0.133098
0.124131
0.113371
0.100459
0.0849641
0.0470965
0.0470313
0.0849517
0.100454
0.113375
0.124142
0.133115
0.133118
0.124144
0.113372
0.100449
0.0849414
0.0470022
0.0469903
0.0849365
0.100445
0.11337
0.124142
0.133118
0.144364
0.134926
0.123602
0.110013
0.0937094
0.0538715
0.058973
0.0999946
0.11689
0.130968
0.142704
0.152481
0.152481
0.142704
0.130968
0.11689
0.0999958
0.0589749
0.0589764
0.0999959
0.116891
0.130971
0.142705
0.152481
0.157277
0.14685
0.134333
0.119312
0.10129
0.0611818
0.0671886
0.0710608
0.0711913
0.0712995
0.0713895
0.0714643
0.111625
0.128156
0.141931
0.15341
0.162978
0.162733
0.153185
0.141731
0.127986
0.111492
0.111335
0.127783
0.141491
0.152915
0.162436
0.162078
0.152589
0.141202
0.127538
0.111144
0.110913
0.127243
0.140853
0.152197
0.161651
0.160025
0.149851
0.13764
0.122989
0.105409
0.10541
0.12299
0.13764
0.149851
0.160025
0.161651
0.152197
0.140853
0.127243
0.110912
0.111143
0.127538
0.141202
0.152589
0.162078
0.162436
0.152915
0.141491
0.127783
0.111335
0.111492
0.127986
0.141731
0.153185
0.162733
0.162978
0.15341
0.141931
0.128156
0.111625
0.0714686
0.0713938
0.0713039
0.0711943
0.0710642
0.0671918
0.00128973
0.0080561
0.00809198
0.00812134
0.00814726
0.00816803
0.0081597
0.00813903
0.00811293
0.00808385
0.00804903
0.00128254
-0.0746378
-0.0693546
-0.0693522
-0.0693496
-0.0693473
-0.0693448
-0.0693553
-0.0693566
-0.0693589
-0.0693627
-0.0693652
-0.0746432
-0.163512
-0.1595
-0.1595
-0.1595
-0.1595
-0.1595
-0.15948
-0.15948
-0.15948
-0.15948
-0.15948
-0.16349
-0.260605
-0.257725
-0.257725
-0.257725
-0.257725
-0.257725
-0.257628
-0.257628
-0.257628
-0.257628
-0.257628
-0.260515
-0.361048
-0.3591
-0.3591
-0.3591
-0.3591
-0.3591
-0.358899
-0.358899
-0.358899
-0.358899
-0.358899
-0.360863
-0.462242
-0.461021
-0.461021
-0.461021
-0.461021
-0.461021
-0.460733
-0.460733
-0.460733
-0.460733
-0.460733
-0.461973
-0.461565
-0.460312
-0.460312
-0.460312
-0.460312
-0.460312
-0.45976
-0.45976
-0.45976
-0.45976
-0.45976
-0.460989
-0.562434
-0.561757
-0.561757
-0.561757
-0.561757
-0.561757
-0.561442
-0.561442
-0.561442
-0.561443
-0.561442
-0.562032
-0.662808
-0.662542
-0.662542
-0.662542
-0.662542
-0.662542
-0.762567
-0.762567
-0.762567
-0.762567
-0.762567
-0.762661
-0.762602
-0.762587
-0.762587
-0.762587
-0.762587
-0.762587
-0.762873
-0.762873
-0.762873
-0.762873
-0.762873
-0.762735
-0.861809
-0.861909
-0.861908
-0.861908
-0.861908
-0.861908
-0.862187
-0.862187
-0.862187
-0.862187
-0.862187
-0.862368
-0.862368
-0.862367
-0.862367
-0.862367
-0.862367
-0.862367
-0.862367
-0.862367
-0.862367
-0.862361
-0.86236
-0.86236
-0.86236
-0.86236
-0.862366
-0.862366
-0.862366
-0.862367
-0.862367
-0.862367
-0.862367
-0.862366
-0.862366
-0.862366
-0.960644
-0.960644
-0.960645
-0.960645
-0.960645
-0.960645
-0.960645
-0.960645
-0.960645
-0.960645
-0.960645
-0.960645
-0.960645
-0.960645
-0.960646
-0.960646
-0.960646
-0.960646
-0.960645
-0.960645
-0.960646
-0.960646
-0.960646
-0.960647
-0.960647
-0.960575
-0.960575
-0.960575
-0.960575
-0.960575
-0.960472
-0.960472
-0.960472
-0.960472
-0.960472
-0.96041
-0.960496
-0.960556
-0.960558
-0.960558
-0.960561
-0.960554
-0.960399
-0.960407
-0.960404
-0.960404
-0.960402
-0.960357
-0.861766
-0.861863
-0.86186
-0.86186
-0.861859
-0.861863
-0.86162
-0.861611
-0.861612
-0.861618
-0.861615
-0.861591
-0.762413
-0.762414
-0.762411
-0.762417
-0.762414
-0.762414
-0.762124
-0.762123
-0.762119
-0.762122
-0.762121
-0.762212
-0.662138
-0.661884
-0.661881
-0.661884
-0.661885
-0.661881
-0.661449
-0.661456
-0.661452
-0.661454
-0.661451
-0.661806
-0.560453
-0.559689
-0.559687
-0.559686
-0.559673
-0.559685
-0.558801
-0.558796
-0.558805
-0.558812
-0.55882
-0.55974
-0.456829
-0.455027
-0.454983
-0.454936
-0.454911
-0.454872
-0.348747
-0.348894
-0.349089
-0.349306
-0.349578
-0.352962
-0.351722
-0.34776
-0.347317
-0.346951
-0.346637
-0.346386
-0.237389
-0.238377
-0.239554
-0.24098
-0.242679
-0.249522
-0.152616
-0.141869
-0.136919
-0.1328
-0.129352
-0.126483
-0.0136253
-0.0195812
-0.026719
-0.0352848
-0.0455515
-0.0636688
0.00452762
0.0278626
0.0399168
0.0499639
0.0583325
0.0653073
0.0982642
0.0921777
0.0848721
0.0761074
0.0655972
0.03759
0.0375605
0.0666828
0.0775587
0.0866275
0.0941869
0.100484
0.100849
0.094413
0.0866875
0.0774177
0.0662956
0.0367508
0.0362507
0.0661592
0.0773673
0.0867084
0.0944936
0.100982
0.101039
0.0945332
0.0867293
0.0773645
0.066128
0.0360047
0.0402503
0.0751109
0.08898
0.100541
0.110171
0.118198
0.118234
0.110199
0.100557
0.0889833
0.0750967
0.0401226
0.0400633
0.0750792
0.0889754
0.100556
0.110205
0.118245
0.118247
0.110203
0.100551
0.088968
0.0750683
0.0400354
0.0400243
0.0750634
0.0889623
0.100544
0.1102
0.118245
0.11824
0.110197
0.10054
0.0889574
0.0750585
0.0400166
0.0469828
0.084933
0.100443
0.113367
0.124141
0.133118
0.144364
0.134926
0.123602
0.110014
0.0937081
0.0538677
0.0538657
0.0937067
0.110014
0.123602
0.134926
0.144364
0.144364
0.134926
0.123602
0.110014
0.0937067
0.0538665
0.0589783
0.0999973
0.116894
0.130973
0.142706
0.152481
0.157277
0.146852
0.134335
0.119316
0.101292
0.0611849
0.0611894
0.101295
0.119317
0.134335
0.146852
0.157278
0.160025
0.149851
0.13764
0.12299
0.105412
0.110911
0.127243
0.140852
0.152196
0.161651
0.162078
0.152588
0.1412
0.127538
0.111142
0.111335
0.127783
0.141491
0.152915
0.162436
0.162733
0.153185
0.141731
0.127986
0.111492
0.111625
0.128156
0.141931
0.15341
0.162978
0.162978
0.15341
0.141931
0.128156
0.111625
0.111492
0.127987
0.141733
0.153186
0.162733
0.162436
0.152917
0.141492
0.127783
0.111335
0.111142
0.127538
0.141201
0.152588
0.162078
0.161651
0.152196
0.140852
0.127243
0.110911
0.105413
0.12299
0.13764
0.149851
0.160025
0.157278
0.146852
0.134336
0.119317
0.101296
0.0611911
0.0671975
0.0710671
0.0711967
0.0713077
0.0713964
0.0714725
0.00817411
0.0081532
0.00812851
0.00809794
0.00806356
0.00129781
0.00129497
0.00806055
0.00809602
0.00812682
0.00815137
0.00817108
-0.0693319
-0.0693331
-0.0693355
-0.0693392
-0.0693429
-0.074625
-0.0746313
-0.0693485
-0.0693449
-0.0693424
-0.06934
-0.0693375
-0.159501
-0.159501
-0.159501
-0.159501
-0.159501
-0.163514
-0.163516
-0.159504
-0.159504
-0.159504
-0.159504
-0.159504
-0.257783
-0.257783
-0.257783
-0.257783
-0.257783
-0.260659
-0.260644
-0.257766
-0.257766
-0.257766
-0.257766
-0.257766
-0.359275
-0.359275
-0.359275
-0.359275
-0.359275
-0.361204
-0.361152
-0.359218
-0.359218
-0.359218
-0.359218
-0.359218
-0.461328
-0.461328
-0.461328
-0.461328
-0.461328
-0.462518
-0.462412
-0.46121
-0.46121
-0.46121
-0.46121
-0.46121
-0.562852
-0.562852
-0.562852
-0.562852
-0.562852
-0.563501
-0.563339
-0.562673
-0.562673
-0.562673
-0.562673
-0.562673
-0.562429
-0.562429
-0.562429
-0.562429
-0.562429
-0.563115
-0.562812
-0.562116
-0.562116
-0.562116
-0.562116
-0.562116
-0.662982
-0.662982
-0.662982
-0.662982
-0.662982
-0.663313
-0.663046
-0.662726
-0.662726
-0.662726
-0.662726
-0.662726
-0.762717
-0.762717
-0.762717
-0.762717
-0.762717
-0.76284
-0.862033
-0.862005
-0.862005
-0.862005
-0.862005
-0.862005
-0.861812
-0.861812
-0.861812
-0.861812
-0.861812
-0.861832
-0.861749
-0.86177
-0.86177
-0.86177
-0.86177
-0.86177
-0.960455
-0.960455
-0.960455
-0.960455
-0.960455
-0.960432
-1.05886
-1.05888
-1.05888
-1.05888
-1.05888
-1.05888
-1.05879
-1.05879
-1.05879
-1.05879
-1.05879
-1.05877
-1.05875
-1.05876
-1.05876
-1.05877
-1.05876
-1.05876
-1.0588
-1.0588
-1.05879
-1.05879
-1.05879
-1.05879
-1.05879
-1.05879
-1.0588
-1.0588
-1.0588
-1.0588
-1.0588
-1.0588
-1.0588
-1.0588
-1.0588
-1.0588
-1.0588
-1.0588
-1.0588
-1.0588
-1.0588
-1.0588
-1.0588
-1.05879
-1.05879
-1.05879
-1.05879
-1.05879
-1.15694
-1.15693
-1.15693
-1.15693
-1.15693
-1.15691
-1.15691
-1.15691
-1.15691
-1.15691
-1.15691
-1.15691
-1.15691
-1.15691
-1.15691
-1.15691
-1.15691
-1.15691
-1.15691
-1.15691
-1.15691
-1.15691
-1.15691
-1.15691
-1.15691
-1.15691
-1.15691
-1.15691
-1.15691
-1.15691
-1.1569
-1.1569
-1.1569
-1.1569
-1.1569
-1.15692
-1.15691
-1.15689
-1.15688
-1.15688
-1.15688
-1.15689
-1.0587
-1.0587
-1.0587
-1.0587
-1.0587
-1.05869
-1.05864
-1.05865
-1.05864
-1.05865
-1.05864
-1.05864
-0.960274
-0.960278
-0.960274
-0.960274
-0.960274
-0.960258
-0.960177
-0.960179
-0.960177
-0.96018
-0.960181
-0.960177
-0.861436
-0.861432
-0.861432
-0.861434
-0.861434
-0.861454
-0.861299
-0.861254
-0.861252
-0.86125
-0.861257
-0.86125
-0.761837
-0.761828
-0.761831
-0.76183
-0.761832
-0.761975
-0.761609
-0.761418
-0.761416
-0.761418
-0.761411
-0.76142
-0.660827
-0.660831
-0.660832
-0.66083
-0.660832
-0.661276
-0.660442
-0.659878
-0.659875
-0.659876
-0.659871
-0.659874
-0.557446
-0.557453
-0.557465
-0.557474
-0.557493
-0.55862
-0.455488
-0.453324
-0.453239
-0.453164
-0.45311
-0.453051
-0.450502
-0.450593
-0.450703
-0.450841
-0.451004
-0.453674
-0.350184
-0.345417
-0.344709
-0.344112
-0.343615
-0.343203
-0.233802
-0.235225
-0.236942
-0.238997
-0.241462
-0.249341
-0.155026
-0.143007
-0.136666
-0.131379
-0.126968
-0.123289
-0.0143288
-0.0207879
-0.0285224
-0.0378221
-0.0489737
-0.0699062
-0.0283802
0.00340401
0.0177325
0.0296785
0.039639
0.0479375
0.0737644
0.0663744
0.0575241
0.0469214
0.0342272
0.00794065
0.00775822
0.0361483
0.0495611
0.0607653
0.0701136
0.0779177
0.0779259
0.0699228
0.0603262
0.0488078
0.0349941
0.00640032
0.00569653
0.0346473
0.0485756
0.0601809
0.0698501
0.0779103
0.0779018
0.0698299
0.0601378
0.0485018
0.0345372
0.00536942
0.00523103
0.0344961
0.0484691
0.0601118
0.0698095
0.0778865
0.101054
0.0945427
0.0867332
0.0773602
0.0661119
0.0358962
0.0358418
0.0660934
0.0773486
0.0867256
0.0945398
0.101051
0.101046
0.0945344
0.0867156
0.0773346
0.0660778
0.035815
0.0358024
0.0660691
0.0773258
0.0867077
0.0945273
0.101041
0.101036
0.0945222
0.0867026
0.0773208
0.0660642
0.0357949
0.0357899
0.0660622
0.0773191
0.0867004
0.0945195
0.101034
0.118238
0.110195
0.100539
0.0889574
0.075056
0.0400118
0.046978
0.0849307
0.100443
0.113367
0.124141
0.133117
0.133117
0.124141
0.113367
0.100443
0.0849307
0.0469788
0.0469789
0.0849307
0.100443
0.113367
0.124141
0.133117
0.144365
0.134926
0.123602
0.110014
0.0937068
0.0538666
0.0589799
0.0999986
0.116895
0.130974
0.142706
0.152481
0.152481
0.142706
0.130974
0.116895
0.0999987
0.0589804
0.0589804
0.0999987
0.116895
0.130974
0.142706
0.152481
0.157278
0.146852
0.134336
0.119317
0.101296
0.0611911
0.0671975
0.0710671
0.0711968
0.0713077
0.0713964
0.0714725
0.111625
0.128156
0.141931
0.15341
0.162978
0.162733
0.153187
0.141733
0.127987
0.111492
0.111335
0.127783
0.141492
0.152917
0.162436
0.162078
0.152588
0.141201
0.127538
0.111142
0.110911
0.127244
0.140852
0.152196
0.161651
0.160025
0.149851
0.13764
0.12299
0.105413
0.105413
0.12299
0.13764
0.149851
0.160025
0.161651
0.152196
0.140852
0.127244
0.110911
0.111142
0.127538
0.141201
0.152588
0.162078
0.162436
0.152917
0.141492
0.127783
0.111335
0.111492
0.127987
0.141733
0.153187
0.162733
0.162978
0.15341
0.141931
0.128156
0.111625
0.0714726
0.0713964
0.0713078
0.0711968
0.0710672
0.0671975
0.00129816
0.00806456
0.00809934
0.00812855
0.00815322
0.0081753
0.00817529
0.0081532
0.00812854
0.00809933
0.00806456
0.00129819
-0.0746222
-0.0693392
-0.0693368
-0.0693343
-0.0693318
-0.0693294
-0.0693313
-0.0693325
-0.0693351
-0.0693387
-0.0693412
-0.0746226
-0.163511
-0.159498
-0.159498
-0.159498
-0.159498
-0.159498
-0.159499
-0.159499
-0.159499
-0.159499
-0.159499
-0.163511
-0.260666
-0.257794
-0.257794
-0.257794
-0.257794
-0.257794
-0.257792
-0.257792
-0.257792
-0.257792
-0.257792
-0.260666
-0.361239
-0.359316
-0.359316
-0.359316
-0.359316
-0.359316
-0.359303
-0.359303
-0.359303
-0.359303
-0.359303
-0.361229
-0.462613
-0.461433
-0.461433
-0.461433
-0.461433
-0.461433
-0.461399
-0.461399
-0.461399
-0.461399
-0.461399
-0.462581
-0.56369
-0.563061
-0.563061
-0.563061
-0.563061
-0.563061
-0.56298
-0.56298
-0.56298
-0.56298
-0.56298
-0.563616
-0.664121
-0.663855
-0.663855
-0.663855
-0.663855
-0.663855
-0.663687
-0.663687
-0.663687
-0.663687
-0.663687
-0.663968
-0.663781
-0.66348
-0.66348
-0.66348
-0.66348
-0.66348
-0.663241
-0.663241
-0.663241
-0.663241
-0.663241
-0.663561
-0.763352
-0.763244
-0.763244
-0.763244
-0.763244
-0.763244
-0.762958
-0.762958
-0.762958
-0.762958
-0.762958
-0.763081
-0.862335
-0.862323
-0.862323
-0.862323
-0.862323
-0.862323
-0.961383
-0.961383
-0.961383
-0.961383
-0.961383
-0.961326
-0.960868
-0.960887
-0.960887
-0.960887
-0.960887
-0.960887
-0.960586
-0.960586
-0.960586
-0.960586
-0.960586
-0.960577
-1.0591
-1.05912
-1.05912
-1.05912
-1.05912
-1.05912
-1.15754
-1.15754
-1.15754
-1.15754
-1.15754
-1.15751
-1.15717
-1.15717
-1.15717
-1.15717
-1.15717
-1.15717
-1.157
-1.157
-1.157
-1.157
-1.157
-1.157
-1.25518
-1.25517
-1.25517
-1.25517
-1.25517
-1.25517
-1.25505
-1.25505
-1.25505
-1.25505
-1.25505
-1.25501
-1.25501
-1.25501
-1.25501
-1.25501
-1.25501
-1.25501
-1.25501
-1.25501
-1.25501
-1.255
-1.255
-1.255
-1.255
-1.255
-1.25501
-1.25501
-1.25501
-1.25502
-1.25502
-1.25501
-1.25501
-1.25501
-1.25501
-1.25501
-1.35311
-1.35311
-1.35311
-1.35311
-1.35311
-1.35311
-1.35311
-1.35311
-1.35311
-1.35311
-1.35311
-1.35311
-1.35311
-1.35312
-1.35312
-1.3531
-1.3531
-1.3531
-1.3531
-1.3531
-1.35311
-1.35311
-1.35311
-1.35311
-1.35311
-1.35317
-1.35317
-1.35316
-1.35316
-1.35316
-1.35331
-1.35331
-1.35331
-1.35331
-1.35331
-1.35333
-1.35318
-1.35313
-1.35313
-1.35313
-1.35313
-1.35313
-1.35317
-1.35317
-1.35317
-1.35317
-1.35317
-1.35322
-1.25507
-1.25503
-1.25503
-1.25503
-1.25504
-1.25503
-1.25506
-1.25507
-1.25506
-1.25506
-1.25507
-1.25509
-1.15689
-1.15688
-1.15688
-1.15688
-1.15688
-1.15688
-1.15689
-1.15689
-1.15689
-1.1569
-1.15689
-1.1569
-1.05861
-1.05861
-1.05861
-1.05861
-1.05861
-1.05861
-1.05858
-1.05858
-1.05858
-1.05858
-1.05858
-1.05858
-0.960087
-0.960084
-0.96008
-0.960086
-0.96008
-0.96008
-0.959937
-0.959941
-0.95994
-0.959937
-0.959942
-0.959953
-0.861065
-0.860998
-0.861001
-0.860994
-0.861001
-0.860994
-0.860589
-0.860588
-0.860587
-0.86059
-0.860591
-0.860691
-0.76103
-0.760772
-0.760776
-0.76077
-0.760773
-0.76077
-0.759795
-0.75981
-0.759795
-0.759806
-0.7598
-0.76016
-0.659218
-0.65848
-0.658477
-0.658474
-0.658461
-0.658472
-0.555502
-0.555524
-0.555541
-0.555562
-0.555599
-0.557029
-0.554922
-0.55305
-0.552979
-0.552926
-0.552888
-0.552839
-0.447101
-0.447277
-0.447494
-0.447753
-0.448063
-0.451454
-0.348628
-0.3428
-0.341616
-0.34062
-0.339795
-0.339112
-0.229472
-0.231532
-0.234021
-0.23699
-0.240559
-0.249691
-0.159314
-0.145806
-0.137783
-0.131083
-0.125497
-0.120841
-0.0279134
-0.0344627
-0.0423181
-0.0517608
-0.0630977
-0.0841964
-0.0467781
-0.0153525
-0.00286513
0.00754613
0.0162266
0.023462
0.0305404
0.022691
0.0132779
0.00198497
-0.0115648
-0.0463364
-0.0298912
0.00598298
0.0218563
0.0350848
0.0461144
0.0553048
0.0554255
0.0459602
0.0345967
0.020966
0.00460988
-0.0316477
-0.0325382
0.0041171
0.0205993
0.0343369
0.0457871
0.0553277
0.0552751
0.0457115
0.0342429
0.0204781
0.00395954
-0.0329438
-0.0331245
0.00388812
0.0204177
0.0341898
0.0456652
0.0552337
0.0552016
0.0456326
0.0341527
0.0203776
0.0038438
-0.0332058
0.00516761
0.034466
0.0484414
0.0600895
0.0697895
0.0778716
0.077859
0.0697746
0.0600726
0.0484195
0.0344409
0.00513131
0.00511102
0.0344263
0.0484066
0.0600598
0.0697623
0.077849
0.0778421
0.0697571
0.0600529
0.0484014
0.0344197
0.00510245
0.00509814
0.0344139
0.0483989
0.0600472
0.0697547
0.0778392
0.0778387
0.0697532
0.0600439
0.0483968
0.0344116
0.00509364
0.0357868
0.0660608
0.0773191
0.0867
0.0945174
0.101034
0.118238
0.110195
0.100539
0.0889574
0.0750561
0.040011
0.0400098
0.0750561
0.0889574
0.100539
0.110195
0.118238
0.118238
0.110195
0.100539
0.0889575
0.0750561
0.0400099
0.0469789
0.0849308
0.100443
0.113367
0.124141
0.133117
0.144365
0.134926
0.123602
0.110014
0.0937068
0.0538669
0.0538669
0.0937069
0.110014
0.123602
0.134926
0.144365
0.144365
0.134926
0.123602
0.110014
0.0937069
0.0538669
0.0589804
0.0999987
0.116895
0.130974
0.142706
0.152481
0.157278
0.146852
0.134336
0.119317
0.101296
0.0611912