/*--------------------------------*- C++ -*----------------------------------*\
| =========                 |                                                 |
| \\      /  F ield         | OpenFOAM: The Open Source CFD Toolbox           |
|  \\    /   O peration     | Version:  2212                                  |
|   \\  /    A nd           | Website:  www.openfoam.com                      |
|    \\/     M anipulation  |                                                 |
\*---------------------------------------------------------------------------*/
FoamFile
{
    version     2.0;
    format      ascii;
    arch        "LSB;label=32;scalar=64";
    class       volScalarField;
    location    "423";
    object      T;
}
// * * * * * * * * * * * * * * * * * * * * * * * * * * * * * * * * * * * * * //

dimensions      [0 0 0 1 0 0 0];

internalField   nonuniform List<scalar> 
247120
(
312.343
312.319
312.203
312.104
312.003
311.925
311.892
311.587
311.6
311.651
311.721
311.794
311.946
312.027
311.864
311.807
311.746
311.695
311.681
311.671
311.685
311.729
311.766
311.808
311.773
311.521
311.431
311.417
311.421
311.361
311.356
311.373
311.51
311.827
311.854
311.509
311.347
311.32
311.324
311.309
311.303
311.336
311.509
311.865
311.878
311.514
311.337
311.305
311.31
311.133
311.134
311.154
311.186
311.224
311.253
311.219
311.188
311.168
311.166
311.264
311.265
311.284
311.312
311.336
311.484
311.471
311.448
311.43
311.428
311.684
311.682
311.697
311.71
311.702
312.341
312.435
312.485
312.504
312.522
313.202
313.183
313.172
313.134
313.062
312.984
312.875
312.973
313.051
313.093
313.107
313.123
313.071
313.054
313.042
313.004
312.931
312.837
312.547
312.454
312.33
312.187
312.059
312.012
312.029
312.047
312.066
312.084
312.104
312.2
312.173
312.148
312.12
312.089
312.226
312.257
312.281
312.302
312.326
312.443
312.418
312.398
312.375
312.346
312.478
312.516
312.543
312.561
312.582
312.757
312.734
312.714
312.68
312.625
312.394
312.485
312.532
312.553
312.573
312.239
312.193
311.688
311.496
311.375
311.312
311.293
311.245
311.257
311.302
311.378
311.502
311.943
312.188
311.577
311.352
311.215
311.143
311.122
311.377
311.407
311.494
311.646
311.878
311.927
311.669
311.494
311.39
311.352
311.314
311.353
311.463
311.649
311.924
311.899
311.614
311.425
311.314
311.273
311.249
311.288
311.399
311.588
311.875
311.873
311.583
311.393
311.284
311.244
311.334
311.373
311.486
311.685
311.993
311.997
311.691
311.492
311.379
311.338
311.372
311.412
311.527
311.727
312.031
312.074
311.777
311.578
311.463
311.421
311.479
311.518
311.629
311.818
312.098
312.092
311.832
311.665
311.57
311.537
311.33
311.354
311.435
311.589
311.839
312.494
312.722
312.847
312.903
312.911
312.901
312.908
313.602
313.599
313.624
313.636
313.611
313.558
313.266
313.345
313.396
313.407
313.399
313.406
313.925
313.919
313.932
313.932
313.909
313.876
313.65
313.689
313.721
313.732
313.728
313.736
313.631
313.619
313.618
313.602
313.563
313.518
313.197
313.042
312.903
312.757
312.612
312.539
312.565
312.594
312.623
312.651
312.68
312.793
312.758
312.725
312.689
312.649
312.804
312.841
312.872
312.9
312.928
313.057
313.03
313.008
312.981
312.947
313.1
313.134
313.157
313.173
313.193
313.357
313.339
313.326
313.304
313.266
313.832
313.85
313.856
313.856
313.865
313.743
313.727
313.72
313.71
313.688
313.536
313.566
313.586
313.603
313.624
313.488
313.456
313.427
313.392
313.35
313.162
313.208
313.25
313.286
313.32
313.194
313.158
313.125
313.089
313.054
313.019
313.093
313.282
313.477
313.641
313.778
313.64
313.449
313.301
313.133
312.989
312.934
312.477
312.528
312.648
312.78
312.899
313.071
312.426
312.329
312.213
312.093
312.001
311.968
312.533
312.355
312.685
312.68
312.701
312.514
312.72
312.842
313.17
313.462
313.829
312.942
312.221
311.947
311.777
311.687
311.66
311.74
311.774
311.878
312.063
312.346
312.28
311.972
311.766
311.647
311.604
311.525
311.567
311.689
311.901
312.221
312.158
311.833
311.621
311.5
311.458
311.42
311.46
311.578
311.787
312.112
312.103
311.777
311.568
311.451
311.41
311.481
311.521
311.643
311.862
312.206
312.218
311.874
311.654
311.532
311.489
311.537
311.58
311.705
311.929
312.274
312.358
312.013
311.786
311.658
311.613
311.715
311.759
311.886
312.109
312.443
312.571
312.252
312.047
311.932
311.895
311.916
311.947
312.051
312.245
312.557
313.375
313.366
313.361
313.333
313.28
313.23
313.22
313.943
313.961
314.027
314.094
314.132
314.152
313.864
313.878
313.868
313.828
313.782
313.771
314.267
314.274
314.308
314.331
314.322
314.283
314.075
314.111
314.13
314.12
314.098
314.094
314.457
314.456
314.464
314.449
314.396
314.305
314.182
314.255
314.298
314.31
314.301
314.301
314.16
314.156
314.165
314.159
314.128
314.081
313.982
314.008
314.031
314.033
314.023
314.025
314.347
314.347
314.36
314.356
314.319
314.259
314.156
314.046
313.878
313.652
313.427
313.338
313.39
313.427
313.465
313.5
313.537
313.684
313.641
313.6
313.553
313.5
313.733
313.777
313.812
313.84
313.87
314.014
313.991
313.978
313.961
313.934
314.094
314.109
314.111
314.111
314.121
314.212
314.208
314.215
314.218
314.204
314.463
314.479
314.476
314.465
314.466
314.374
314.366
314.371
314.374
314.363
314.205
314.229
314.241
314.249
314.266
314.119
314.087
314.058
314.024
313.978
313.734
313.788
313.836
313.877
313.916
313.764
313.721
313.682
313.641
313.6
313.561
313.654
313.901
314.147
314.314
314.401
314.267
314.108
313.928
313.706
313.518
313.451
313.241
313.298
313.467
313.667
313.836
314.018
313.859
313.632
313.464
313.285
313.146
313.096
312.82
312.863
312.98
313.13
313.272
313.481
312.948
312.773
312.654
312.531
312.429
312.384
312.252
312.293
312.392
312.515
312.639
312.848
312.218
312.079
311.975
311.875
311.8
311.771
311.45
311.463
311.52
311.607
311.709
311.918
311.836
311.42
311.27
311.165
311.104
311.088
311.168
311.181
311.233
311.318
311.439
311.802
312.051
311.343
311.112
310.973
310.9
310.88
311.061
311.081
311.156
311.302
311.547
312.266
312.751
312.02
311.773
311.625
311.548
311.526
311.878
311.906
312
312.179
312.47
313.302
313.678
312.753
312.423
312.219
312.113
312.081
312.09
312.124
312.24
312.458
312.805
313.705
313.637
313.593
313.535
313.455
313.385
313.366
312.306
311.945
311.714
311.586
311.544
311.558
311.6
311.728
311.961
312.322
312.391
312.024
311.786
311.653
311.607
311.696
311.743
311.88
312.123
312.49
312.599
312.237
311.996
311.857
311.808
312.029
312.07
312.195
312.419
312.765
312.957
312.579
312.331
312.192
312.147
311.905
311.956
312.106
312.366
312.753
312.625
312.232
311.972
311.825
311.773
311.679
311.726
311.867
312.119
312.506
312.427
312.046
311.801
311.666
311.62
311.608
311.652
311.784
312.026
312.403
313.505
313.532
313.621
313.725
313.806
313.874
314.547
314.523
314.463
314.365
314.268
314.226
314.089
314.12
314.204
314.29
314.346
314.378
314.587
314.653
314.663
314.628
314.577
314.553
314.415
314.431
314.477
314.509
314.505
314.462
314.509
314.648
314.72
314.743
314.733
314.726
314.596
314.599
314.611
314.595
314.535
314.428
314.464
314.647
314.758
314.813
314.826
314.828
314.71
314.709
314.703
314.662
314.571
314.424
314.354
314.482
314.556
314.586
314.585
314.585
314.465
314.465
314.472
314.456
314.401
314.304
314.441
314.585
314.663
314.692
314.688
314.685
314.578
314.584
314.6
314.591
314.539
314.444
314.551
314.682
314.752
314.77
314.756
314.748
314.641
314.641
314.654
314.66
314.642
314.551
314.562
314.557
314.549
314.554
314.448
314.429
314.421
314.41
314.386
314.154
314.2
314.234
314.262
314.292
314.08
314.034
313.989
313.938
313.88
313.751
313.791
313.833
313.872
313.914
314.013
313.963
313.922
313.878
313.836
313.984
314.043
314.095
314.14
314.185
314.414
314.378
314.347
314.31
314.261
314.514
314.537
314.548
314.556
314.574
314.684
314.675
314.682
314.685
314.674
314.757
314.78
314.778
314.767
314.766
314.866
314.871
314.88
314.854
314.769
314.627
314.686
314.628
314.461
314.187
313.905
313.795
313.681
313.753
313.969
314.222
314.417
314.542
314.43
314.291
314.105
313.866
313.663
313.59
313.409
313.464
313.63
313.848
314.046
314.267
314.104
313.878
313.694
313.494
313.342
313.29
313.063
313.111
313.253
313.446
313.639
313.934
313.703
313.418
313.245
313.073
312.945
312.9
312.649
312.693
312.805
312.952
313.099
313.348
313.238
312.929
312.763
312.606
312.49
312.445
312.078
312.122
312.224
312.358
312.498
312.75
312.153
311.958
311.834
311.723
311.646
311.618
311.302
311.316
311.376
311.478
311.612
311.899
311.916
311.434
311.242
311.113
311.042
311.022
310.862
310.891
310.988
311.167
311.443
312.101
312.054
311.344
311.102
310.947
310.863
310.839
310.927
310.949
311.03
311.185
311.442
312.196
312.625
311.908
311.676
311.541
311.474
311.455
311.889
311.916
312.008
312.183
312.468
313.288
313.68
312.769
312.441
312.24
312.135
312.104
312.262
312.298
312.42
312.652
313.018
313.976
313.975
312.999
312.632
312.4
312.278
312.242
312.238
312.277
312.408
312.652
313.035
313.99
314.215
313.256
312.843
312.57
312.421
312.376
312.276
312.325
312.475
312.743
313.139
312.913
312.502
312.22
312.057
311.999
311.859
311.912
312.07
312.348
312.76
312.624
312.218
311.95
311.8
311.748
311.688
311.734
311.877
312.134
312.531
312.503
312.11
311.856
311.716
311.67
311.737
311.784
311.93
312.193
312.598
312.632
312.221
311.952
311.803
311.752
311.825
311.878
312.036
312.316
312.737
312.894
312.464
312.171
312.002
311.943
312.106
312.167
312.341
312.64
313.066
313.324
312.911
312.623
312.458
312.404
312.537
312.586
312.749
313.044
313.472
314.377
314.242
314.155
314.047
313.911
313.793
313.744
314.445
314.497
314.602
314.699
314.742
314.727
314.668
314.659
314.601
314.498
314.394
314.344
314.772
314.799
314.843
314.857
314.809
314.691
314.671
314.758
314.781
314.751
314.699
314.672
314.93
314.934
314.926
314.87
314.749
314.553
314.561
314.724
314.815
314.85
314.845
314.838
315.013
315.003
314.96
314.858
314.688
314.443
314.484
314.693
314.828
314.902
314.926
314.931
315.061
315.044
314.984
314.857
314.659
314.38
314.455
314.691
314.848
314.94
314.977
314.987
314.892
314.887
314.864
314.794
314.666
314.47
314.457
314.626
314.729
314.778
314.788
314.789
314.932
314.926
314.903
314.832
314.699
314.498
314.538
314.705
314.802
314.843
314.844
314.842
314.951
314.95
314.94
314.884
314.766
314.578
314.596
314.812
314.944
315.007
315.02
315.02
314.942
314.949
314.961
314.933
314.841
314.687
314.765
314.714
314.545
314.258
313.96
313.844
313.882
313.922
313.965
314.007
314.054
314.242
314.19
314.142
314.086
314.025
314.333
314.382
314.417
314.447
314.48
314.65
314.629
314.622
314.612
314.589
314.763
314.773
314.766
314.757
314.762
314.847
314.848
314.862
314.867
314.845
314.895
314.918
314.913
314.898
314.897
314.808
314.8
314.812
314.822
314.815
314.639
314.659
314.666
314.671
314.689
314.514
314.476
314.444
314.408
314.358
314.048
314.108
314.163
314.211
314.26
314.069
314.016
313.971
313.925
313.882
313.858
313.976
314.289
314.592
314.77
314.819
314.683
314.558
314.342
314.057
313.815
313.727
313.72
313.798
314.027
314.296
314.501
314.625
314.448
314.236
314.018
313.771
313.581
313.513
313.481
313.544
313.722
313.954
314.162
314.375
314.176
313.881
313.658
313.429
313.259
313.198
313.15
313.206
313.363
313.576
313.786
314.081
313.951
313.541
313.294
313.063
312.899
312.842
312.786
312.838
312.985
313.192
313.414
313.802
313.573
313.212
313.018
312.837
312.707
312.662
312.416
312.463
312.601
312.804
313.037
313.49
313.137
312.752
312.557
312.383
312.262
312.217
311.866
311.911
312.019
312.168
312.334
312.655
312.079
311.812
311.664
311.546
311.471
311.447
311.156
311.17
311.231
311.339
311.492
311.854
311.901
311.387
311.183
311.047
310.973
310.952
310.825
310.852
310.943
311.11
311.363
311.993
312.022
311.389
311.158
311.011
310.933
310.91
310.92
310.946
311.036
311.209
311.489
312.215
312.598
311.897
311.667
311.538
311.474
311.456
311.92
311.947
312.037
312.212
312.501
313.308
313.675
312.796
312.459
312.253
312.147
312.117
312.244
312.281
312.407
312.65
313.033
313.926
314.11
313.247
312.819
312.534
312.384
312.34
312.391
312.432
312.574
312.84
313.245
314.181
314.206
313.228
312.829
312.568
312.428
312.387
312.546
312.593
312.752
313.041
313.461
314.357
314.451
313.687
313.257
312.943
312.765
312.712
312.701
312.756
312.934
313.248
313.684
314.493
314.371
314.284
314.17
314.024
313.896
313.84
312.684
312.271
311.999
311.849
311.799
311.822
311.872
312.027
312.304
312.723
312.842
312.411
312.12
311.954
311.897
312.034
312.094
312.272
312.578
313.016
313.212
312.776
312.462
312.275
312.208
312.55
312.607
312.782
313.082
313.498
313.66
313.251
312.943
312.759
312.698
312.323
312.392
312.586
312.908
313.344
313.131
312.687
312.372
312.187
312.121
311.976
312.033
312.204
312.502
312.937
312.807
312.383
312.1
311.941
311.887
311.867
311.916
312.068
312.343
312.759
313.918
313.979
314.113
314.266
314.383
314.465
314.757
314.834
314.819
314.737
314.637
314.579
314.522
314.578
314.682
314.774
314.803
314.764
314.659
314.85
314.942
314.96
314.933
314.907
314.85
314.878
314.915
314.914
314.844
314.693
314.479
314.747
314.92
315.019
315.054
315.056
315.003
315.006
314.987
314.91
314.764
314.537
314.299
314.628
314.863
315.022
315.101
315.124
315.079
315.064
315.005
314.876
314.673
314.389
314.162
314.541
314.818
315.015
315.123
315.157
315.121
315.096
315.015
314.855
314.618
314.296
314.082
314.493
314.796
315.013
315.133
315.173
315.142
315.114
315.025
314.852
314.599
314.251
314.375
314.671
314.877
315.009
315.071
315.09
315.017
315.006
314.965
314.866
314.7
314.456
314.394
314.695
314.897
315.023
315.079
315.096
315.028
315.02
314.989
314.902
314.745
314.511
314.475
314.75
314.93
315.035
315.075
315.086
315.11
315.095
315.046
314.93
314.732
314.437
314.61
314.833
314.973
315.04
315.055
315.057
314.988
314.994
315.005
314.975
314.879
314.717
314.794
314.947
315.025
315.032
315.002
314.989
314.892
314.895
314.922
314.944
314.937
314.829
314.828
314.809
314.791
314.796
314.669
314.647
314.642
314.639
314.621
314.32
314.37
314.406
314.437
314.476
314.205
314.148
314.096
314.038
313.975
313.813
313.854
313.9
313.944
313.996
313.966
313.906
313.859
313.812
313.771
313.95
314.012
314.07
314.122
314.177
314.467
314.42
314.385
314.346
314.294
314.618
314.634
314.637
314.642
314.664
314.797
314.787
314.804
314.824
314.828
314.946
314.948
314.923
314.894
314.891
314.983
314.995
315.029
315.031
314.959
314.813
314.9
314.821
314.597
314.24
313.887
313.75
313.629
313.719
313.988
314.315
314.575
314.763
314.738
314.569
314.324
314.01
313.749
313.656
313.435
313.505
313.715
313.996
314.253
314.526
314.498
314.269
314.039
313.78
313.583
313.517
313.201
313.264
313.446
313.694
313.937
314.254
314.227
313.922
313.689
313.449
313.274
313.214
312.85
312.909
313.089
313.348
313.625
314.084
314.04
313.602
313.338
313.091
312.918
312.861
312.597
312.658
312.853
313.161
313.534
314.033
313.911
313.424
313.089
312.81
312.63
312.572
312.521
312.574
312.734
312.975
313.26
313.742
313.66
313.225
312.887
312.609
312.437
312.383
312.217
312.265
312.41
312.638
312.917
313.427
313.06
312.586
312.357
312.166
312.039
311.994
311.606
311.645
311.748
311.906
312.107
312.552
311.997
311.665
311.501
311.379
311.309
311.29
311.03
311.043
311.102
311.209
311.369
311.8
311.832
311.299
311.096
310.961
310.886
310.866
310.719
310.746
310.837
311.001
311.244
311.87
311.88
311.31
311.112
310.986
310.919
310.9
311.525
311.537
311.576
311.652
311.779
312.203
312.357
311.815
311.647
311.549
311.5
311.486
311.91
311.932
312.006
312.149
312.383
313.054
313.382
312.606
312.327
312.159
312.073
312.048
312.11
312.14
312.247
312.455
312.787
313.634
313.847
312.949
312.562
312.311
312.18
312.143
312.207
312.253
312.409
312.701
313.129
314.03
314.246
313.463
313.009
312.689
312.514
312.462
312.537
312.585
312.749
313.048
313.475
314.31
314.389
313.696
313.265
312.943
312.76
312.704
312.914
312.971
313.161
313.481
313.881
314.435
314.511
313.886
313.476
313.158
312.973
312.916
312.889
312.947
313.134
313.455
313.876
314.565
314.607
314.044
313.65
313.334
313.143
313.082
312.863
312.924
313.108
313.411
313.804
313.469
313.038
312.711
312.511
312.437
312.22
312.285
312.474
312.792
313.232
313.024
312.588
312.287
312.112
312.052
311.959
312.011
312.172
312.457
312.88
312.828
312.412
312.135
311.981
311.93
311.996
312.043
312.197
312.471
312.882
312.94
312.52
312.237
312.076
312.023
312.131
312.189
312.363
312.663
313.092
313.318
312.885
312.568
312.378
312.31
312.557
312.629
312.83
313.152
313.57
313.931
313.563
313.266
313.082
313.019
313.29
313.348
313.529
313.823
314.175
314.644
314.595
314.519
314.397
314.234
314.089
314.019
314.639
314.693
314.781
314.844
314.838
314.754
314.764
314.846
314.841
314.768
314.674
314.617
314.962
314.981
314.984
314.933
314.811
314.612
314.639
314.837
314.946
314.981
314.966
314.944
315.101
315.089
315.023
314.883
314.674
314.394
314.439
314.716
314.909
315.03
315.081
315.089
315.155
315.118
314.998
314.787
314.505
314.156
314.228
314.571
314.832
315.019
315.119
315.15
315.171
315.117
314.959
314.695
314.356
313.945
314.057
314.454
314.764
314.997
315.129
315.175
315.172
315.108
314.926
314.626
314.241
313.772
313.928
314.374
314.72
314.98
315.131
315.184
315.168
315.101
314.911
314.594
314.181
313.66
313.866
314.347
314.711
314.978
315.132
315.185
315.175
315.135
315.016
314.797
314.486
314.065
314.251
314.609
314.862
315.032
315.118
315.146
315.164
315.129
315.021
314.817
314.52
314.105
314.323
314.664
314.896
315.044
315.115
315.137
315.147
315.12
315.038
314.871
314.612
314.234
314.171
314.586
314.858
315.03
315.111
315.138
315.113
315.098
315.052
314.934
314.726
314.408
314.67
314.89
315.016
315.063
315.061
315.057
315.045
315.047
315.052
315.008
314.881
314.657
314.652
314.884
315.002
315.034
315.018
315.009
314.952
314.969
315.015
315.032
314.972
314.832
314.909
314.817
314.577
314.205
313.839
313.699
313.713
313.751
313.796
313.84
313.895
314.124
314.06
314.006
313.946
313.883
314.257
314.306
314.342
314.375
314.419
314.629
314.601
314.596
314.595
314.581
314.816
314.805
314.778
314.757
314.763
314.863
314.866
314.901
314.935
314.943
314.923
314.907
314.865
314.825
314.82
314.711
314.702
314.726
314.759
314.778
314.537
314.545
314.542
314.543
314.568
314.354
314.306
314.271
314.234
314.186
313.818
313.878
313.934
313.986
314.044
313.819
313.759
313.711
313.665
313.627
313.634
313.772
314.149
314.539
314.797
314.902
314.78
314.541
314.25
313.896
313.606
313.504
313.571
313.666
313.945
314.286
314.563
314.779
314.546
314.231
313.952
313.65
313.423
313.342
313.396
313.473
313.691
313.982
314.25
314.542
314.235
313.865
313.595
313.323
313.123
313.051
313.105
313.172
313.364
313.627
313.888
314.243
314.061
313.529
313.223
312.946
312.756
312.692
312.8
312.864
313.05
313.32
313.61
314.094
314.127
313.625
313.189
312.83
312.607
312.537
312.581
312.647
312.857
313.192
313.6
314.109
314.179
313.835
313.417
313.038
312.805
312.734
312.634
312.698
312.91
313.259
313.656
314.031
313.846
313.457
313.083
312.767
312.574
312.516
312.635
312.685
312.857
313.143
313.453
313.681
313.526
313.195
312.869
312.596
312.433
312.384
312.098
312.145
312.29
312.529
312.835
313.354
312.984
312.431
312.174
311.973
311.846
311.801
311.455
311.489
311.587
311.749
311.971
312.48
312.219
311.715
311.475
311.314
311.229
311.207
311.219
311.245
311.337
311.495
311.702
311.976
312.072
311.738
311.491
311.301
311.191
311.158
311.097
311.133
311.252
311.462
311.743
312.146
312.186
311.769
311.519
311.345
311.25
311.222
311.663
311.682
311.747
311.875
312.081
312.479
312.863
312.311
312.046
311.885
311.807
311.784
311.812
311.828
311.882
311.991
312.179
312.779
313.03
312.296
312.064
311.934
311.871
311.854
311.824
311.846
311.929
312.097
312.388
313.243
313.45
312.468
312.113
311.902
311.796
311.766
311.74
311.778
311.913
312.174
312.588
313.658
313.848
312.703
312.237
311.933
311.772
311.725
312.291
312.344
312.524
312.849
313.305
314.187
314.352
313.67
313.213
312.869
312.674
312.615
312.807
312.87
313.077
313.427
313.86
314.431
314.492
314.05
313.647
313.3
313.086
313.019
313.13
313.189
313.38
313.691
314.052
314.47
314.543
314.056
313.682
313.374
313.189
313.131
313.358
313.413
313.589
313.872
314.196
314.569
314.605
314.336
314.054
313.793
313.626
313.573
313.48
313.536
313.708
313.982
314.298
314.685
314.64
314.561
314.435
314.267
314.118
314.045
312.92
312.514
312.245
312.095
312.047
312.083
312.132
312.289
312.568
312.981
313.145
312.722
312.426
312.254
312.195
312.395
312.46
312.648
312.961
313.384
313.657
313.251
312.933
312.733
312.657
313.174
313.236
313.414
313.696
314.042
314.137
313.817
313.547
313.374
313.313
312.753
312.825
313.021
313.332
313.725
313.436
313.021
312.714
312.528
312.462
312.253
312.308
312.475
312.765
313.18
313.009
312.602
312.33
312.177
312.128
312.094
312.137
312.281
312.542
312.941
314.06
314.134
314.288
314.464
314.596
314.682
314.792
314.873
314.872
314.805
314.718
314.663
314.654
314.709
314.795
314.859
314.853
314.77
314.633
314.825
314.942
314.995
314.997
314.981
314.976
314.993
314.992
314.937
314.814
314.619
314.402
314.671
314.875
315.021
315.096
315.114
315.113
315.097
315.024
314.878
314.666
314.39
314.129
314.471
314.751
314.974
315.109
315.155
315.16
315.118
314.988
314.766
314.479
314.132
313.862
314.27
314.618
314.905
315.087
315.155
315.169
315.106
314.933
314.652
314.301
313.887
313.604
314.084
314.496
314.837
315.055
315.138
315.161
315.086
314.883
314.556
314.15
313.669
313.399
313.949
314.41
314.787
315.026
315.118
315.15
315.069
314.852
314.499
314.053
313.51
313.279
313.889
314.38
314.77
315.01
315.101
315.14
315.062
314.849
314.495
314.031
313.439
313.644
314.197
314.614
314.923
315.102
315.167
315.176
315.126
314.983
314.727
314.367
313.876
313.715
314.27
314.665
314.945
315.101
315.156
315.164
315.124
315.007
314.785
314.459
313.992
313.895
314.406
314.749
314.979
315.098
315.139
315.094
315.055
314.942
314.721
314.381
313.852
314.215
314.631
314.883
315.027
315.087
315.107
315.086
315.079
315.052
314.959
314.77
314.454
314.432
314.761
314.942
315.023
315.04
315.043
314.979
314.978
314.976
314.918
314.756
314.434
314.655
314.882
314.984
314.995
314.964
314.953
314.905
314.924
314.981
315.014
314.97
314.839
314.844
314.963
314.986
314.932
314.862
314.838
314.753
314.756
314.803
314.858
314.889
314.731
314.706
314.667
314.639
314.646
314.504
314.474
314.471
314.475
314.468
314.12
314.165
314.2
314.233
314.279
313.966
313.901
313.846
313.788
313.728
313.554
313.588
313.631
313.675
313.731
313.633
313.569
313.525
313.483
313.45
313.643
313.698
313.752
313.803
313.863
314.193
314.138
314.103
314.067
314.023
314.397
314.397
314.39
314.391
314.419
314.569
314.555
314.584
314.627
314.66
314.842
314.797
314.73
314.678
314.672
314.749
314.773
314.858
314.941
314.949
314.854
314.863
314.725
314.434
314.014
313.617
313.464
313.357
313.455
313.755
314.132
314.453
314.746
314.767
314.5
314.195
313.829
313.535
313.432
313.216
313.291
313.522
313.837
314.138
314.516
314.533
314.184
313.893
313.585
313.358
313.283
312.94
313.007
313.204
313.479
313.759
314.176
314.205
313.81
313.535
313.261
313.063
312.997
312.565
312.626
312.813
313.087
313.393
313.954
314.017
313.467
313.159
312.881
312.691
312.63
312.376
312.44
312.662
313.036
313.513
314.108
314.138
313.574
313.104
312.729
312.504
312.436
312.85
312.926
313.185
313.605
314.042
314.354
314.281
313.958
313.535
313.138
312.894
312.823
313.334
313.387
313.572
313.868
314.144
314.302
314.103
313.948
313.654
313.351
313.165
313.112
312.875
312.928
313.107
313.403
313.703
313.887
313.636
313.63
313.445
313.233
313.103
313.067
312.752
312.791
312.927
313.156
313.386
313.481
313.39
313.125
312.835
312.59
312.448
312.406
312
312.045
312.181
312.415
312.727
313.279
312.881
312.26
311.984
311.78
311.658
311.614
311.329
311.357
311.447
311.604
311.828
312.367
312.116
311.574
311.36
311.217
311.14
311.12
311.069
311.095
311.184
311.344
311.579
312.154
312.267
311.723
311.457
311.275
311.175
311.146
311.09
311.12
311.22
311.402
311.667
312.249
312.149
311.664
311.454
311.32
311.253
311.234
311.621
311.632
311.672
311.759
311.913
312.313
312.531
312.006
311.807
311.697
311.646
311.632
311.438
311.456
311.525
311.674
311.941
312.633
313.031
312.354
312.019
311.818
311.72
311.693
311.573
311.609
311.738
311.999
312.416
313.212
313.414
312.481
311.981
311.66
311.497
311.451
311.391
311.45
311.656
312.046
312.623
313.635
313.845
312.765
312.122
311.672
311.427
311.356
311.415
311.498
311.779
312.28
312.961
314.043
314.022
312.849
312.349
312.01
311.825
311.771
312.417
312.477
312.674
313.018
313.486
314.322
314.428
313.669
313.207
312.854
312.648
312.585
312.811
312.873
313.076
313.417
313.847
314.509
314.547
314.217
313.865
313.544
313.339
313.274
313.368
313.426
313.608
313.895
314.206
314.502
314.541
314.349
314.089
313.832
313.664
313.61
313.852
313.899
314.044
314.258
314.463
314.601
314.66
314.452
314.215
313.988
313.839
313.791
313.667
313.719
313.877
314.126
314.404
314.725
314.777
314.507
314.261
314.034
313.886
313.837
313.447
313.504
313.668
313.923
314.225
313.785
313.402
313.097
312.904
312.83
312.523
312.585
312.764
313.064
313.471
313.202
312.792
312.509
312.347
312.292
312.164
312.208
312.354
312.618
313.019
312.949
312.555
312.301
312.163
312.121
312.134
312.176
312.315
312.557
312.89
312.961
312.617
312.365
312.217
312.168
312.302
312.357
312.521
312.792
313.149
313.449
313.087
312.797
312.614
312.547
312.94
313.013
313.204
313.491
313.827
314.687
314.53
314.325
314.15
314.065
314.678
314.735
314.833
314.92
314.948
314.918
314.842
314.901
314.888
314.814
314.723
314.668
314.984
315.002
315.009
314.978
314.898
314.773
314.69
314.851
314.952
314.997
314.997
314.981
315.106
315.091
315.027
314.908
314.749
314.556
314.461
314.697
314.883
315.019
315.091
315.11
315.137
315.094
314.971
314.777
314.546
314.286
314.186
314.492
314.753
314.967
315.1
315.146
315.123
315.057
314.883
314.621
314.321
313.991
313.897
314.274
314.606
314.887
315.07
315.139
315.089
315.003
314.786
314.463
314.094
313.689
313.615
314.065
314.464
314.804
315.026
315.114
315.049
314.95
314.701
314.326
313.894
313.412
313.369
313.894
314.351
314.736
314.985
315.084
315.013
314.909
314.645
314.239
313.758
313.203
313.202
313.796
314.294
314.7
314.958
315.058
314.987
314.888
314.631
314.22
313.714
313.096
313.142
313.792
314.303
314.704
314.948
315.041
315.088
315.006
314.783
314.41
313.917
313.271
313.471
314.082
314.533
314.866
315.058
315.128
315.074
315.006
314.815
314.481
314.019
313.366
313.62
314.214
314.622
314.906
315.062
315.118
315.06
315.009
314.864
314.592
314.192
313.571
313.663
314.28
314.631
314.849
314.956
314.993
315.033
315.006
314.927
314.752
314.453
313.933
314.199
314.62
314.859
314.987
315.035
315.052
314.976
314.964
314.934
314.833
314.622
314.211
314.25
314.637
314.805
314.866
314.871
314.873
314.889
314.896
314.917
314.891
314.762
314.453
314.657
314.874
314.952
314.939
314.893
314.877
314.779
314.798
314.863
314.906
314.86
314.664
314.679
314.844
314.846
314.764
314.678
314.651
314.629
314.659
314.762
314.877
314.925
314.861
314.825
314.667
314.358
313.926
313.522
313.369
313.341
313.366
313.402
313.442
313.497
313.742
313.674
313.623
313.572
313.52
313.924
313.96
313.989
314.021
314.069
314.306
314.272
314.271
314.283
314.289
314.58
314.534
314.48
314.445
314.454
314.562
314.568
314.628
314.71
314.774
314.693
314.609
314.513
314.446
314.437
314.322
314.309
314.347
314.41
314.47
314.179
314.163
314.143
314.138
314.167
313.933
313.879
313.848
313.822
313.792
313.406
313.448
313.492
313.537
313.595
313.362
313.304
313.264
313.231
313.209
313.269
313.419
313.829
314.271
314.596
314.771
314.672
314.333
313.983
313.585
313.271
313.16
313.259
313.361
313.668
314.056
314.392
314.71
314.457
314.031
313.708
313.376
313.133
313.046
313.129
313.211
313.447
313.769
314.081
314.485
314.096
313.64
313.349
313.067
312.861
312.786
312.86
312.931
313.131
313.408
313.693
314.131
313.795
313.22
312.923
312.658
312.473
312.408
312.483
312.546
312.73
312.998
313.299
313.87
314.074
313.312
312.843
312.487
312.276
312.211
312.293
312.357
312.571
312.937
313.418
314.095
314.313
314.093
313.68
313.261
312.996
312.914
312.894
312.974
313.238
313.661
314.085
314.347
314.578
314.477
314.226
313.932
313.736
313.677
313.513
313.57
313.765
314.072
314.35
314.506
314.396
314.364
314.209
314.015
313.891
313.857
313.624
313.655
313.769
313.95
314.085
314.081
313.847
313.865
313.709
313.513
313.392
313.359
313.443
313.462
313.534
313.643
313.687
313.533
313.392
313.497
313.398
313.255
313.166
313.141
312.794
312.825
312.931
313.112
313.286
313.312
313.286
313.018
312.753
312.536
312.414
312.377
311.881
311.924
312.048
312.267
312.571
313.18
312.714
312.044
311.77
311.581
311.473
311.435
311.234
311.257
311.341
311.496
311.728
312.279
312.018
311.457
311.257
311.124
311.052
311.034
310.977
311.001
311.083
311.229
311.444
312.034
312.002
311.402
311.189
311.045
310.964
310.94
311.022
311.048
311.136
311.293
311.527
312.12
312.032
311.551
311.382
311.28
311.229
311.215
311.565
311.574
311.602
311.662
311.773
312.119
312.164
311.733
311.598
311.528
311.496
311.487
311.219
311.229
311.268
311.359
311.542
312.118
312.168
311.379
311.128
311.001
310.946
310.932
311.222
311.247
311.341
311.541
311.889
312.759
312.961
311.902
311.464
311.202
311.074
311.039
310.926
310.974
311.144
311.476
312.001
313.203
313.45
312.127
311.526
311.129
310.919
310.858
310.874
310.948
311.195
311.648
312.306
313.688
313.894
312.491
311.786
311.288
311.01
310.926
311.515
311.608
311.918
312.455
313.157
314.211
314.176
313.006
312.494
312.133
311.93
311.871
312.032
312.095
312.306
312.674
313.177
314.309
314.417
313.363
312.876
312.508
312.293
312.228
313.059
313.121
313.317
313.64
314.03
314.586
314.597
314.366
314.073
313.788
313.601
313.54
313.813
313.867
314.029
314.268
314.499
314.656
314.722
314.646
314.469
314.27
314.132
314.085
314.081
314.122
314.246
314.427
314.591
314.688
314.731
314.563
314.364
314.167
314.036
313.994
314.186
314.223
314.336
314.506
314.678
314.832
314.859
314.603
314.38
314.174
314.04
313.994
313.556
313.613
313.772
314.017
314.307
314.799
314.895
314.76
314.573
314.342
314.148
314.056
312.912
312.519
312.275
312.149
312.114
312.162
312.199
312.334