/*--------------------------------*- C++ -*----------------------------------*\
| =========                 |                                                 |
| \\      /  F ield         | OpenFOAM: The Open Source CFD Toolbox           |
|  \\    /   O peration     | Version:  2212                                  |
|   \\  /    A nd           | Website:  www.openfoam.com                      |
|    \\/     M anipulation  |                                                 |
\*---------------------------------------------------------------------------*/
FoamFile
{
    version     2.0;
    format      ascii;
    arch        "LSB;label=32;scalar=64";
    class       volScalarField;
    location    "310";
    object      p;
}
// * * * * * * * * * * * * * * * * * * * * * * * * * * * * * * * * * * * * * //

dimensions      [0 2 -2 0 0 0 0];

internalField   nonuniform List<scalar> 
248319
(
0
0.0192812
0.0402705
0.0499123
0.057952
0.0646547
0.0702485
0.109359
0.103294
0.0960204
0.0872981
0.076839
0.05105
0.0498384
0.0761412
0.0872746
0.0965708
0.104329
0.1108
0.0812606
0.0763908
0.0706024
0.0636745
0.0553486
0.0330963
0.0137219
0.0280089
0.0342216
0.0395215
0.0440861
0.0480599
0.0626218
0.0577842
0.0519867
0.0450481
0.0367397
0.0196811
-0.0539513
-0.0471951
-0.0434505
-0.0403269
-0.0377064
-0.0355306
-0.0212302
-0.024698
-0.0288566
-0.0338343
-0.0397996
-0.0507607
-0.0555467
-0.0402196
-0.0334773
-0.0278622
-0.0231818
-0.0192651
0.0634664
0.0574269
0.0501784
0.0414874
0.031066
0.000542787
0.0309085
0.0593116
0.0692841
0.0775985
0.0845263
0.0903055
0.100136
0.0944895
0.0877145
0.0795875
0.0698439
0.035903
0.0499515
0.0749745
0.0847376
0.0928748
0.0996587
0.105313
0.109529
0.103006
0.0951847
0.0858082
0.0745688
0.047315
0.0190787
0.0397507
0.0463776
0.0519038
0.0565866
0.0606353
-0.035628
-0.0383583
-0.0410885
-0.0438167
-0.0465468
-0.0535702
-0.051501
-0.0438531
-0.0414647
-0.0392243
-0.0370863
-0.0350218
-0.140383
-0.140793
-0.141183
-0.141552
-0.141891
-0.145266
-0.144829
-0.141953
-0.140974
-0.14016
-0.139479
-0.138906
-0.132515
-0.133793
-0.135338
-0.137176
-0.139386
-0.144444
-0.145908
-0.139379
-0.136706
-0.134477
-0.132607
-0.131067
-0.133988
-0.135626
-0.137604
-0.139964
-0.142808
-0.150194
-0.0695814
-0.0525792
-0.0457588
-0.0400732
-0.03534
-0.0313777
0.0473158
0.0406954
0.0327547
0.0232238
0.0117973
-0.0194642
-0.0091602
0.0315407
0.0452769
0.0567301
0.0662807
0.0742431
0.0901744
0.0833691
0.0752083
0.0654169
0.053674
0.0104131
0.00965418
0.0523134
0.0641513
0.0740181
0.0822414
0.0890976
0.097879
0.0922978
0.0856008
0.0775639
0.0679218
0.034479
0.048943
0.0735209
0.0833193
0.0914835
0.0982867
0.103954
0.109476
0.102781
0.0947544
0.0851316
0.073595
0.0456357
0.0147863
0.0354126
0.042198
0.047911
0.0527926
0.057039
-0.0392357
-0.0419518
-0.0446697
-0.047388
-0.0501089
-0.0586927
-0.147624
-0.143316
-0.142597
-0.141878
-0.141161
-0.140442
-0.13944
-0.140144
-0.140843
-0.141542
-0.142241
-0.146189
-0.244004
-0.242356
-0.242282
-0.242209
-0.242136
-0.242062
-0.242966
-0.242954
-0.24292
-0.24286
-0.242763
-0.24376
-0.243301
-0.242398
-0.242273
-0.242166
-0.242082
-0.242015
-0.238681
-0.239003
-0.239384
-0.23985
-0.240401
-0.242613
-0.242868
-0.239816
-0.239095
-0.238492
-0.237993
-0.237567
-0.238125
-0.238593
-0.239157
-0.239825
-0.240625
-0.244232
-0.245661
-0.2415
-0.240523
-0.239715
-0.23903
-0.238472
-0.136216
-0.13806
-0.140277
-0.142933
-0.146121
-0.154319
-0.0773924
-0.0596766
-0.0525228
-0.0465573
-0.0415922
-0.037446
0.0342224
0.0274451
0.0193112
0.00954702
-0.00215474
-0.0328413
-0.025282
0.0126347
0.026666
0.0383648
0.0481182
0.0562457
0.0568214
0.0485537
0.0386306
0.0267268
0.012446
-0.0247335
-0.00913383
0.0306846
0.0447061
0.0563925
0.0661348
0.0742559
0.0739254
0.0657236
0.0558825
0.0440766
0.0299071
-0.00976361
0.00872166
0.0514082
0.0634078
0.0734052
0.0817377
0.0886824
0.0975744
0.0919149
0.0851257
0.0769771
0.0672006
0.033554
0.0480716
0.0729846
0.0829131
0.0911862
0.0980814
0.103825
0.109425
0.102619
0.0944564
0.0846709
0.0729381
0.0445329
0.0132908
0.0339989
0.0409717
0.0468584
0.0518986
0.0562855
-0.0407172
-0.0434405
-0.0461632
-0.0488861
-0.0516106
-0.060397
-0.148685
-0.144129
-0.143453
-0.142777
-0.142102
-0.141427
-0.242716
-0.242792
-0.242868
-0.242945
-0.243022
-0.245112
-0.244491
-0.242467
-0.242394
-0.242322
-0.24225
-0.242176
-0.343429
-0.343426
-0.343424
-0.343424
-0.343421
-0.344202
-0.343967
-0.3434
-0.343421
-0.343442
-0.343463
-0.343484
-0.344216
-0.344164
-0.3441
-0.344022
-0.343927
-0.344016
-0.343696
-0.343604
-0.343658
-0.343709
-0.343749
-0.343784
-0.341966
-0.342012
-0.342065
-0.342133
-0.342215
-0.343041
-0.342996
-0.341739
-0.341611
-0.341498
-0.34141
-0.341343
-0.341482
-0.341564
-0.341674
-0.341808
-0.34196
-0.343486
-0.34396
-0.342141
-0.341954
-0.341789
-0.341657
-0.341545
-0.340747
-0.340941
-0.341157
-0.341428
-0.341748
-0.344
-0.246043
-0.241073
-0.239695
-0.23855
-0.237587
-0.236801
-0.134498
-0.136816
-0.139604
-0.142944
-0.146946
-0.156208
-0.0818245
-0.0633025
-0.0553365
-0.0486928
-0.0431709
-0.0385487
0.0239851
0.0175062
0.00972902
0.000397234
-0.0107879
-0.0404972
-0.0341702
0.00128287
0.0135981
0.023867
0.0324273
0.0395608
0.0405654
0.0333939
0.0247887
0.0144645
0.00208004
-0.0330932
-0.0329141
0.00218855
0.0145602
0.0248718
0.0334669
0.040628
0.0567193
0.0484157
0.0384514
0.0264986
0.0121558
-0.0248805
-0.0250521
0.0120415
0.0263847
0.0383365
0.0482972
0.0565965
0.0737287
0.0655156
0.0556596
0.0438301
0.0296381
-0.0101153
0.00827206
0.0511117
0.0631482
0.0731735
0.0815322
0.0884953
0.0974491
0.0917703
0.0849588
0.0767829
0.0669689
0.0331453
0.0476868
0.072782
0.0827522
0.0910585
0.0979814
0.103748
0.109381
0.102529
0.0943119
0.0844597
0.0726484
0.0440634
0.0127355
0.0335596
0.0406012
0.0465473
0.0516395
0.0560679
-0.0412008
-0.0439199
-0.0466381
-0.049357
-0.0520775
-0.0610052
-0.149293
-0.144729
-0.14405
-0.143369
-0.142689
-0.14201
-0.243178
-0.243254
-0.243332
-0.243409
-0.243485
-0.245565
-0.344861
-0.344035
-0.344035
-0.344034
-0.344034
-0.344034
-0.343713
-0.343713
-0.343713
-0.343714
-0.343714
-0.34455
-0.444335
-0.444007
-0.444007
-0.444006
-0.444006
-0.444006
-0.443841
-0.44384
-0.443839
-0.443839
-0.443837
-0.444125
-0.44403
-0.443873
-0.443887
-0.4439
-0.443914
-0.443927
-0.44448
-0.44445
-0.444411
-0.444365
-0.44431
-0.444162
-0.444027
-0.444165
-0.444224
-0.444278
-0.444323
-0.444357
-0.443424
-0.443424
-0.443418
-0.443412
-0.443407
-0.443664
-0.443743
-0.443297
-0.443293
-0.443279
-0.443275
-0.44326
-0.443617
-0.443639
-0.443636
-0.443657
-0.443674
-0.444185
-0.44475
-0.444209
-0.444174
-0.444158
-0.444148
-0.444125
-0.444411
-0.444437
-0.444473
-0.444508
-0.444564
-0.445188
-0.445386
-0.444563
-0.444447
-0.444344
-0.444269
-0.444205
-0.338865
-0.339233
-0.339653
-0.340168
-0.340783
-0.343676
-0.245829
-0.239639
-0.237457
-0.235638
-0.234111
-0.232852
-0.124294
-0.127546
-0.13146
-0.136154
-0.141791
-0.154686
-0.0824965
-0.0606205
-0.0513457
-0.0436106
-0.0371791
-0.0317933
0.0161888
0.00998535
0.00254324
-0.00638602
-0.0170964
-0.0445887
-0.0407016
-0.0115085
-0.00120068
0.00739563
0.0145575
0.0205311
0.0212611
0.015341
0.00823992
-0.000282965
-0.010505
-0.0395444
-0.0393238
-0.0103403
-0.000140679
0.00836138
0.0154452
0.0213516
0.0213251
0.0154216
0.008346
-0.000149063
-0.0103467
-0.03936
-0.0329705
0.00217762
0.0145391
0.0248416
0.0334243
0.0405768
0.0405257
0.0333739
0.0247941
0.0144935
0.00213312
-0.0330685
-0.0251859
0.0119677
0.0263095
0.0382608
0.048219
0.0565162
0.0736298
0.0654142
0.0555555
0.043723
0.029528
-0.0102985
0.00807617
0.0510049
0.0630462
0.0730783
0.081442
0.0884098
0.0973937
0.0917123
0.0848947
0.0767136
0.066895
0.0329949
0.0475547
0.0727198
0.0827001
0.0910151
0.0979455
0.103719
0.10937
0.102502
0.0942658
0.0843898
0.0725515
0.0439196
0.0125794
0.0335096
0.0405911
0.0465712
0.0516893
0.056135
-0.041356
-0.0440846
-0.0468123
-0.0495398
-0.0522687
-0.0612232
-0.149554
-0.144998
-0.144316
-0.143634
-0.142952
-0.142268
-0.243451
-0.243528
-0.243606
-0.243682
-0.24376
-0.245819
-0.34508
-0.344276
-0.344276
-0.344276
-0.344275
-0.344275
-0.444446
-0.444446
-0.444446
-0.444447
-0.444447
-0.44475
-0.44456
-0.444239
-0.444238
-0.444238
-0.444237
-0.444237
-0.543812
-0.543812
-0.543812
-0.543813
-0.543813
-0.54395
-0.543761
-0.543618
-0.543618
-0.543617
-0.543617
-0.543617
-0.543494
-0.543495
-0.543496
-0.543494
-0.543494
-0.543618
-0.543579
-0.543531
-0.543537
-0.543543
-0.543549
-0.543556
-0.543934
-0.543918
-0.543899
-0.543875
-0.543846
-0.543714
-0.54373
-0.543873
-0.543913
-0.543939
-0.543959
-0.543991
-0.543653
-0.543637
-0.543647
-0.543633
-0.543626
-0.54367
-0.543987
-0.543896
-0.54389
-0.543906
-0.543886
-0.543895
-0.544634
-0.544626
-0.544645
-0.544635
-0.54464
-0.544675
-0.545673
-0.545752
-0.545752
-0.545754
-0.545743
-0.545747
-0.547078
-0.547082
-0.547087
-0.547088
-0.547095
-0.546875
-0.548131
-0.548469
-0.548443
-0.548438
-0.548418
-0.548407
-0.549294
-0.549318
-0.549359
-0.549393
-0.549442
-0.549078
-0.445321
-0.444122
-0.443848
-0.443622
-0.443437
-0.44328
-0.336048
-0.336707
-0.337478
-0.338413
-0.339539
-0.343299
-0.246648
-0.23895
-0.235635
-0.232868
-0.230553
-0.228632
-0.121744
-0.125784
-0.130648
-0.136486
-0.143488
-0.159706
-0.109578
-0.0815026
-0.0711859
-0.06258
-0.0554077
-0.0494251
-0.0144985
-0.0204204
-0.0275134
-0.0360299
-0.0462422
-0.0736355
-0.0681653
-0.0358152
-0.025764
-0.0173862
-0.0103979
-0.00456938
-0.00459829
-0.0104168
-0.0173907
-0.0257581
-0.0358032
-0.0676291
-0.0675484
-0.0358234
-0.0257779
-0.0174074
-0.0104319
-0.00461718
-0.0046665
-0.0104794
-0.017457
-0.0258241
-0.0358678
-0.0676194
-0.0677127
-0.0359266
-0.0258772
-0.0175045
-0.010527
-0.00471123
0.0212854
0.015382
0.00830418
-0.000193092
-0.010393
-0.0394409
-0.039505
-0.0104337
-0.000232711
0.00826878
0.0153516
0.0212547
0.0404944
0.0333401
0.0247561
0.0144548
0.00209267
-0.0331391
-0.0252628
0.0119259
0.0262662
0.0382167
0.0481754
0.0564746
0.0735823
0.0653668
0.0555083
0.043678
0.0294841
-0.0103808
0.00800529
0.0509683
0.0630086
0.0730421
0.0814061
0.0883736
0.0973734
0.0916907
0.0848719
0.0766912
0.0668769
0.0329553
0.0475246
0.072706
0.0826859
0.0910019
0.0979325
0.103708
0.109363
0.102493
0.0942534
0.0843736
0.0725326
0.04389
0.012548
0.0335027
0.0405884
0.0465705
0.0516916
0.0561386
-0.0413841
-0.0441154
-0.0468441
-0.0495724
-0.0523032
-0.0612649
-0.149636
-0.145088
-0.144406
-0.143723
-0.143042
-0.142358
-0.24358
-0.243657
-0.243734
-0.243811
-0.243889
-0.245932
-0.34521
-0.34442
-0.34442
-0.344419
-0.344419
-0.344419
-0.44461
-0.44461
-0.444611
-0.444611
-0.444612
-0.444902
-0.544361
-0.544254
-0.544253
-0.544252
-0.544251
-0.544251
-0.544028
-0.544029
-0.544029
-0.54403
-0.54403
-0.544151
-0.64326
-0.643218
-0.643217
-0.643216
-0.643215
-0.643215
-0.642926
-0.642927
-0.642927
-0.642928
-0.642928
-0.642988
-0.642784
-0.642713
-0.642713
-0.642712
-0.642712
-0.642712
-0.642585
-0.642585
-0.642585
-0.642586
-0.642587
-0.642652
-0.642625
-0.642595
-0.642597
-0.642598
-0.642599
-0.642602
-0.642839
-0.642831
-0.642825
-0.642817
-0.642805
-0.64273
-0.642842
-0.64294
-0.64295
-0.642963
-0.642983
-0.642983
-0.643028
-0.643036
-0.643025
-0.643027
-0.643025
-0.642997
-0.643517
-0.64357
-0.643576
-0.643573
-0.643572
-0.643572
-0.644645
-0.64465
-0.644641
-0.644653
-0.644643
-0.644468
-0.645908
-0.646292
-0.646296
-0.646284
-0.646293
-0.646289
-0.648504
-0.648505
-0.648511
-0.648514
-0.648511
-0.64786
-0.650224
-0.65117
-0.651174
-0.651169
-0.651161
-0.651165
-0.65365
-0.653651
-0.653659
-0.653664
-0.653668
-0.652513
-0.65322
-0.654533
-0.654507
-0.654499
-0.654476
-0.654473
-0.548937
-0.549009
-0.549089
-0.549182
-0.549296
-0.549069
-0.445042
-0.4432
-0.44263
-0.442153
-0.441756
-0.441433
-0.33239
-0.333543
-0.334894
-0.336532
-0.338499
-0.343563
-0.247288
-0.235365
-0.230324
-0.226122
-0.222602
-0.219696
-0.125687
-0.130344
-0.135929
-0.14263
-0.150667
-0.170134
-0.126764
-0.0995771
-0.0890708
-0.080311
-0.0730086
-0.0669227
-0.0553496
-0.0619173
-0.0698063
-0.0792641
-0.0906124
-0.121095
-0.10253
-0.0664794
-0.0549373
-0.0453124
-0.037291
-0.0306013
-0.0307563
-0.0374089
-0.0453916
-0.0549678
-0.0664573
-0.101791
-0.10168
-0.0665613
-0.0550716
-0.0454935
-0.0375102
-0.0308586
-0.0309366
-0.0375892
-0.0455737
-0.0551517
-0.0666452
-0.101736
-0.101828
-0.0667088
-0.0552104
-0.0456321
-0.0376448
-0.0309899
-0.0310228
-0.0376775
-0.0456672
-0.0552504
-0.0667538
-0.101898
-0.0677802
-0.0359702
-0.0259159
-0.0175383
-0.0105585
-0.00473962
-0.00475234
-0.0105746
-0.0175565
-0.0259395
-0.0359936
-0.0678208
-0.0395429
-0.0104565
-0.000253016
0.00824653
0.0153341
0.0212366
0.0404771
0.0333208
0.0247355
0.0144323
0.00206732
-0.033182
-0.0253031
0.0119027
0.0262449
0.0381962
0.0481567
0.0564539
0.0735638
0.0653488
0.0554904
0.0436602
0.0294669
-0.0104126
0.00798722
0.0509592
0.0629975
0.0730307
0.0813944
0.0883597
0.0973668
0.0916839
0.0848678
0.0766886
0.0668736
0.0329535
0.0475269
0.0727033
0.0826841
0.0910007
0.0979295
0.103704
0.109361
0.102491
0.0942515
0.0843714
0.0725298
0.0439002
0.0125705
0.0335367
0.0406286
0.0466143
0.0517367
0.0561855
-0.0413702
-0.0440996
-0.0468278
-0.0495585
-0.0522901
-0.0612518
-0.149647
-0.145107
-0.144424
-0.14374
-0.143056
-0.142375
-0.243629
-0.243705
-0.243782
-0.243861
-0.243938
-0.245972
-0.345285
-0.344504
-0.344503
-0.344502
-0.344502
-0.344502
-0.444747
-0.444747
-0.444747
-0.444748
-0.444749
-0.445028
-0.54459
-0.544498
-0.544497
-0.544496
-0.544495
-0.544495
-0.644066
-0.644066
-0.644067
-0.644069
-0.644072
-0.644053
-0.643612
-0.643596
-0.643594
-0.643592
-0.643591
-0.64359
-0.742912
-0.742913
-0.742915
-0.742917
-0.742921
-0.742857
-0.742222
-0.742237
-0.742235
-0.742233
-0.742231
-0.742231
-0.741767
-0.741767
-0.741768
-0.741769
-0.74177
-0.741787
-0.741506
-0.74147
-0.741469
-0.741469
-0.741468
-0.741468
-0.741299
-0.741299
-0.7413
-0.741301
-0.741301
-0.741344
-0.741296
-0.741263
-0.741263
-0.741262
-0.741263
-0.741263
-0.741372
-0.741372
-0.741371
-0.741372
-0.741372
-0.741357
-0.741504
-0.741548
-0.74155
-0.741553
-0.741556
-0.741558
-0.741834
-0.741834
-0.741833
-0.741832
-0.741833
-0.741783
-0.742417
-0.742538
-0.742535
-0.742531
-0.74254
-0.742535
-0.743794
-0.743788
-0.743788
-0.743784
-0.743794
-0.743518
-0.745224
-0.745737
-0.74573
-0.745742
-0.745733
-0.745739
-0.748499
-0.748498
-0.748502
-0.748494
-0.748498
-0.747648
-0.750764
-0.752043
-0.752039
-0.752039
-0.75204
-0.752041
-0.755828
-0.755842
-0.755825
-0.755838
-0.755836
-0.754157
-0.757019
-0.75831
-0.758311
-0.758296
-0.75831
-0.758296
-0.752351
-0.752356
-0.752355
-0.752372
-0.752373
-0.750916
-0.650122
-0.651432
-0.651375
-0.651341
-0.651297
-0.65128
-0.546518
-0.546692
-0.546871
-0.547089
-0.547363
-0.547558
-0.444588
-0.441785
-0.44071
-0.439813
-0.439061
-0.438448
-0.328978
-0.330785
-0.332942
-0.335542
-0.338653
-0.345472
-0.255365
-0.23972
-0.233209
-0.22778
-0.223249
-0.21948
-0.140947
-0.146829
-0.153872
-0.162334
-0.172471
-0.201277
-0.161019
-0.133938
-0.123845
-0.115426
-0.108405
-0.102546
-0.0845177
-0.0909465
-0.0986552
-0.107902
-0.118988
-0.153268
-0.152024
-0.118419
-0.107522
-0.0984364
-0.090865
-0.0845527
-0.0556969
-0.0621129
-0.0698199
-0.0790626
-0.090152
-0.119897
-0.119718
-0.090192
-0.0791306
-0.0699114
-0.0622288
-0.0558276
-0.0559249
-0.0623246
-0.0700028
-0.0792194
-0.0902759
-0.119782
-0.119873
-0.0903481
-0.0792883
-0.0700694
-0.0623864
-0.0559871
-0.0560222
-0.0624237
-0.0701094
-0.0793333
-0.0903982
-0.119942
-0.119982
-0.0904241
-0.0793579
-0.0701298
-0.0624438
-0.0560371
-0.0310376
-0.0376922
-0.0456842
-0.0552701
-0.0667784
-0.101941
-0.101962
-0.0667852
-0.0552764
-0.0456905
-0.0376985
-0.0310384
-0.00475995
-0.0105779
-0.0175629
-0.025946
-0.0360024
-0.0678424
-0.0395621
-0.0104657
-0.000260132
0.00824167
0.015327
0.0212326
0.0404697
0.0333147
0.024726
0.0144219
0.0020555
-0.0332054
-0.0253246
0.011892
0.0262353
0.0381859
0.048147
0.0564461
0.073558
0.0653429
0.0554828
0.0436567
0.0294622
-0.0104248
0.00798503
0.0509597
0.0629978
0.0730284
0.0813903
0.0883573
0.0973647
0.0916838
0.0848696
0.0766915
0.0668768
0.0329603
0.0475325
0.0727054
0.0826862
0.0910015
0.0979309
0.103704
0.109359
0.102489
0.0942502
0.0843714
0.07253
0.043905
0.0125828
0.0335447
0.0406355
0.0466224
0.0517419
0.0561886
-0.0413485
-0.0440776
-0.0468068
-0.0495376
-0.0522705
-0.0612299
-0.149637
-0.145099
-0.144416
-0.143732
-0.143047
-0.142365
-0.243647
-0.243723
-0.243802
-0.243881
-0.243957
-0.245987
-0.345336
-0.34456
-0.344559
-0.344558
-0.344558
-0.344558
-0.444868
-0.444869
-0.444869
-0.44487
-0.444871
-0.445141
-0.544831
-0.544763
-0.544761
-0.54476
-0.54476
-0.544759
-0.644618
-0.644619
-0.64462
-0.644623
-0.644625
-0.644557
-0.744737
-0.744995
-0.744992
-0.74499
-0.744988
-0.744987
-0.743851
-0.743852
-0.743854
-0.743857
-0.743861
-0.743714
-0.843915
-0.844264
-0.844261
-0.844259
-0.844257
-0.844256
-0.842492
-0.842492
-0.842494
-0.842497
-0.842501
-0.842325
-0.841196
-0.841267
-0.841264
-0.841261
-0.841259
-0.841259
-0.840488
-0.840488
-0.84049
-0.840491
-0.840493
-0.840477
-0.840052
-0.840039
-0.840039
-0.840038
-0.840037
-0.840037
-0.839788
-0.839789
-0.839789
-0.83979
-0.839791
-0.839819
-0.83973
-0.839693
-0.839692
-0.839691
-0.839688
-0.839687
-0.839704
-0.839708
-0.839712
-0.839716
-0.839722
-0.83974
-0.839886
-0.839892
-0.839892
-0.839886
-0.839883
-0.839881
-0.840241
-0.840246
-0.840237
-0.840242
-0.840244
-0.840197
-0.840832
-0.840963
-0.840957
-0.84096
-0.840965
-0.84096
-0.842194
-0.842194
-0.842202
-0.842191
-0.842198
-0.841914
-0.84361
-0.844131
-0.844131
-0.844131
-0.844132
-0.844127
-0.846947
-0.846962
-0.846948
-0.846955
-0.846958
-0.846077
-0.849316
-0.850715
-0.850704
-0.850706
-0.850714
-0.850707
-0.855006
-0.854996
-0.855002
-0.854993
-0.855005
-0.852862
-0.856052
-0.858686
-0.858681
-0.85868
-0.858679
-0.858682
-0.859266
-0.859271
-0.859267
-0.859271
-0.859268
-0.858041
-0.901241
-0.901651
-0.901639
-0.90163
-0.901619
-0.901612
-0.925117
-0.933799
-0.941038
-0.947073
-0.952101
-0.952099
-0.947071
-0.941041
-0.933807
-0.925129
-0.92514
-0.933817
-0.941052
-0.947076
-0.952092
-0.952094
-0.947071
-0.941051
-0.933822
-0.925158
-0.925174
-0.933835
-0.94106
-0.947067
-0.952086
-0.952243
-0.947078
-0.940885
-0.93345
-0.92453
-0.925747
-0.934451
-0.94171
-0.947752
-0.95279
-0.909932
-0.903498
-0.895777
-0.88651
-0.875389
-0.848803
-0.805064
-0.838022
-0.851587
-0.862893
-0.872313
-0.88016
-0.880005
-0.871991
-0.862369
-0.850824
-0.836969
-0.837514
-0.851183
-0.862573
-0.872065
-0.879972
-0.879987
-0.872077
-0.862581
-0.851186
-0.837511
-0.837512
-0.851193
-0.862589
-0.872085
-0.88
-0.880018
-0.872098
-0.862596
-0.851192
-0.837512
-0.837509
-0.851193
-0.862598
-0.872103
-0.880022
-0.865288
-0.856799
-0.846611
-0.834385
-0.819712
-0.819713
-0.834381
-0.846606
-0.856793
-0.86528
-0.865271
-0.856784
-0.8466
-0.834378
-0.819714
-0.81971
-0.834373
-0.846592
-0.856772
-0.865257
-0.865241
-0.856761
-0.846583
-0.834367
-0.819709
-0.818227
-0.833318
-0.845894
-0.85637
-0.865097
-0.865051
-0.856219
-0.845618
-0.832894
-0.817626
-0.7824
-0.782333
-0.782404
-0.782389
-0.782371
-0.782352
-0.782348
-0.718824
-0.718882
-0.718928
-0.718997
-0.719075
-0.717983
-0.636446
-0.636845
-0.636468
-0.636169
-0.635899
-0.635692
-0.536306
-0.537019
-0.537849
-0.538873
-0.540081
-0.542421
-0.446156
-0.43973
-0.436571
-0.433945
-0.43174
-0.429914
-0.321615
-0.325321
-0.329754
-0.335082
-0.341465
-0.35662
-0.302158
-0.273987
-0.264384
-0.256384
-0.249708
-0.244147
-0.204067
-0.209648
-0.216358
-0.2244
-0.234038
-0.260241
-0.222128
-0.195111
-0.185126
-0.176796
-0.169856
-0.164068
-0.150264
-0.156526
-0.164033
-0.173039
-0.183844
-0.214783
-0.191909
-0.153451
-0.141729
-0.131956
-0.12381
-0.117019
-0.116779
-0.123466
-0.131482
-0.141104
-0.152647
-0.190282
-0.189914
-0.152598
-0.141089
-0.131495
-0.123507
-0.11684
-0.0846756
-0.0909739
-0.0985349
-0.107608
-0.11849
-0.151845
-0.151893
-0.118573
-0.107695
-0.0986292
-0.0910733
-0.0847817
-0.084849
-0.0911438
-0.0987022
-0.107771
-0.118657
-0.151991
-0.152066
-0.11871
-0.10782
-0.0987483
-0.0911875
-0.0848906
-0.0849085
-0.091208
-0.0987745
-0.107846
-0.118741
-0.152112
-0.152138
-0.118755
-0.10786
-0.098786
-0.0912175
-0.0849144
-0.0560418
-0.0624512
-0.0701395
-0.0793676
-0.090436
-0.120004
-0.120012
-0.0904385
-0.0793664
-0.0701395
-0.0624489
-0.0560395
-0.0310355
-0.0376955
-0.0456876
-0.055278
-0.0667852
-0.10197
-0.0678465
-0.036003
-0.0259441
-0.0175637
-0.0105761
-0.00475815
0.021233
0.0153273
0.00824193
-0.000261968
-0.0104662
-0.039568
-0.0332152
0.00205182
0.0144187
0.0247229
0.0333136
0.0404693
0.0564467
0.0481435
0.0381826
0.0262336
0.0118902
-0.0253326
-0.0104272
0.0294648
0.0436592
0.0554847
0.0653406
0.0735558
0.0883552
0.0813905
0.0730312
0.0630007
0.0509631
0.00798809
0.0329665
0.0668814
0.0766925
0.0848699
0.0916849
0.0973629
0.103704
0.0979299
0.0909996
0.0826866
0.0727093
0.0475387
0.0439127
0.0725331
0.0843724
0.0942487
0.102486
0.109357
0.0561999
0.0517538
0.0466335
0.0406473
0.0335571
0.0125972
-0.0612125
-0.0522547
-0.0495225
-0.0467932
-0.0440615
-0.0413313
-0.142355
-0.143038
-0.143721
-0.144405
-0.145089
-0.149627
-0.245995
-0.243965
-0.243887
-0.243809
-0.243732
-0.243654
-0.344599
-0.344599
-0.344599
-0.3446
-0.3446
-0.345373
-0.445243
-0.444981
-0.44498
-0.444979
-0.444979
-0.444979
-0.545014
-0.545014
-0.545015
-0.545016
-0.545018
-0.545065
-0.645065
-0.645188
-0.645185
-0.645183
-0.645182
-0.645181
-0.746171
-0.746172
-0.746174
-0.746176
-0.746178
-0.745791
-0.847932
-0.848808
-0.848807
-0.848806
-0.848805
-0.848805
-0.846458
-0.846459
-0.84646
-0.846461
-0.846463
-0.84587
-0.948421
-0.949602
-0.949602
-0.949601
-0.949601
-0.9496
-0.945563
-0.945563
-0.945565
-0.945566
-0.945567
-0.944886
-0.942146
-0.942494
-0.942491
-0.942488
-0.942487
-0.942486
-0.940423
-0.940424
-0.940426
-0.940429
-0.940432
-0.940281
-0.939143
-0.939195
-0.939193
-0.939191
-0.939189
-0.939189
-0.938509
-0.93851
-0.93851
-0.938511
-0.938512
-0.938507
-0.938172
-0.938154
-0.938153
-0.938152
-0.938152
-0.938151
-0.937981
-0.937985
-0.937987
-0.937987
-0.937991
-0.938024
-0.937982
-0.93795
-0.937943
-0.937937
-0.937932
-0.937926
-0.938061
-0.938064
-0.938068
-0.938074
-0.938085
-0.938093
-0.938364
-0.938398
-0.938392
-0.938392
-0.938392
-0.938392
-0.938998
-0.938998
-0.938998
-0.939001
-0.938998
-0.938895
-0.93979
-0.940014
-0.940023
-0.940012
-0.940021
-0.940016
-0.94163
-0.941624
-0.941624
-0.941628
-0.941628
-0.941205
-0.943295
-0.944019
-0.944019
-0.94402
-0.944007
-0.944023
-0.947272
-0.947268
-0.947278
-0.94728
-0.947272
-0.946061
-0.949122
-0.951268
-0.951271
-0.951274
-0.951263
-0.951266
-0.955711
-0.955697
-0.955711
-0.955707
-0.955705
-0.951658
-0.967755
-0.98568
-0.991824
-0.996945
-1.00121
-1.00477
-1.0042
-1.00419
-1.00419
-1.00419
-1.0042
-1.00069
-1.0007
-1.0007
-1.0007
-1.00071
-0.99651
-0.996504
-0.996494
-0.996487
-0.996478
-0.991423
-0.991436
-0.991446
-0.991468
-0.991486
-0.985445
-0.985415
-0.985391
-0.985378
-0.985356
-0.969963
-0.969965
-0.969985
-0.969997
-0.970012
-1.0532
-1.05317
-1.05316
-1.05315
-1.05314
-1.05715
-1.05717
-1.05719
-1.05721
-1.05725
-1.0597
-1.05968
-1.05966
-1.05964
-1.05963
-1.0617
-1.0617
-1.06172
-1.06173
-1.06175
-1.06345
-1.06344
-1.06343
-1.06342
-1.06342
-1.06485
-1.06486
-1.06485
-1.06487
-1.06487
-1.06533
-1.06387
-1.0621
-1.05999
-1.05744
-1.05287
-1.05261
-1.05802
-1.06061
-1.06277
-1.06456
-1.06605
-1.00586
-1.00238
-0.998199
-0.993182
-0.987159
-0.965453
-0.90205
-0.904969
-0.929545
-0.937303
-0.943773
-0.94916
-0.953643
-0.910412
-0.904644
-0.897721
-0.889417
-0.879451
-0.851461
-0.807348
-0.841162
-0.853824
-0.864378
-0.873168
-0.880497
-0.865266
-0.85675
-0.84653
-0.834266
-0.819547
-0.784414
-0.783331
-0.818588
-0.833624
-0.846153
-0.856594
-0.865289
-0.865119
-0.856106
-0.845287
-0.8323
-0.816715
-0.781274
-0.780833
-0.817154
-0.832622
-0.845511
-0.856246
-0.865193
-0.865335
-0.865348
-0.865359
-0.865364
-0.865371
-0.856621
-0.856617
-0.856613
-0.856606
-0.856597
-0.846112
-0.846115
-0.846117
-0.846117
-0.846119
-0.833515
-0.833517
-0.833522
-0.833524
-0.833525
-0.818426
-0.818415
-0.818408
-0.818397
-0.81839
-0.780357
-0.780387
-0.780423
-0.780476
-0.780527
-0.716451
-0.71618
-0.71595
-0.715764
-0.715601
-0.63072
-0.631249
-0.631892
-0.632642
-0.633562
-0.634418
-0.541647
-0.537036
-0.534647
-0.532651
-0.531004
-0.529606
-0.420801
-0.423729
-0.427264
-0.431507
-0.436582
-0.447952
-0.370543
-0.352048
-0.344549
-0.338304
-0.333091
-0.32874
-0.27059
-0.275932
-0.282342
-0.290029
-0.299254
-0.325123
-0.31766
-0.287998
-0.278397
-0.270391
-0.263719
-0.258157
-0.220272
-0.226548
-0.234079
-0.243115
-0.25395
-0.292167
-0.251768
-0.218284
-0.207722
-0.198911
-0.191564
-0.185441
-0.184869
-0.190845
-0.198009
-0.206608
-0.216918
-0.249828
-0.212894
-0.182755
-0.172259
-0.163515
-0.156219
-0.150143
-0.150117
-0.156162
-0.16341
-0.172104
-0.182541
-0.212401
-0.212342
-0.182545
-0.172124
-0.163441
-0.156206
-0.150169
-0.116928
-0.123584
-0.131569
-0.141151
-0.152652
-0.189891
-0.189969
-0.152722
-0.14122
-0.131635
-0.12365
-0.116992
-0.117033
-0.123696
-0.131682
-0.141272
-0.152774
-0.19004
-0.190091
-0.152807
-0.141302
-0.13171
-0.123718
-0.117059
-0.117068
-0.123728
-0.131724
-0.141315
-0.152825
-0.190118
-0.19013
-0.152831
-0.141319
-0.131725
-0.123729
-0.11707
-0.0849135
-0.0912168
-0.098785
-0.107864
-0.118757
-0.152148
-0.152151
-0.118756
-0.10786
-0.0987781
-0.0912123
-0.0849072
-0.0560316
-0.0624411
-0.070134
-0.0793615
-0.0904358
-0.120013
-0.10197
-0.066781
-0.0552735
-0.0456807
-0.037686
-0.0310291
-0.00474942
-0.0105745
-0.0175585
-0.0259416
-0.0360008
-0.0678469
-0.0395682
-0.0104629
-0.000257765
0.00824401
0.0153342
0.0212366
0.0404733
0.0333156
0.0247261
0.0144223
0.0020536
-0.0332168
-0.0253336
0.0118908
0.0262351
0.038185
0.048144
0.0564488
0.0735545
0.0653413
0.0554879
0.0436606
0.0294673
-0.0104273
0.00798929
0.0509665
0.0630024
0.0730343
0.0813914
0.0883557
0.0973619
0.0916849
0.084869
0.0766926
0.0668829
0.0329711
0.0475447
0.0727102
0.0826864
0.0910006
0.0979294
0.103703
0.109355
0.102485
0.0942488
0.0843725
0.0725332
0.0439163
0.0126032
0.0335578
0.0406481
0.0466341
0.0517539
0.0562009
-0.0413237
-0.0440527
-0.0467834
-0.0495141
-0.0522451
-0.0612013
-0.149622
-0.145084
-0.144398
-0.143715
-0.143032
-0.142348
-0.24366
-0.243738
-0.243814
-0.243892
-0.243971
-0.246
-0.345402
-0.344632
-0.344632
-0.344631
-0.344631
-0.344631
-0.445071
-0.445071
-0.445071
-0.445072
-0.445072
-0.445326
-0.545257
-0.545229
-0.545228
-0.545227
-0.545226
-0.545226
-0.64566
-0.645661
-0.645662
-0.645664
-0.645666
-0.645496
-0.746685
-0.747186
-0.747185
-0.747184
-0.747182
-0.747182
-0.85086
-0.85086
-0.85086
-0.850861
-0.850861
-0.849718
-0.956371
-0.957549
-0.957573
-0.957597
-0.95762
-0.957646
-0.953988
-0.953988
-0.953988
-0.953988
-0.953988
-0.952484
-1.06171
-1.06207
-1.06213
-1.0622
-1.06226
-1.06233
-1.0546
-1.0546
-1.0546
-1.0546
-1.0546
-1.0534
-1.0466
-1.04777
-1.04777
-1.04777
-1.04777
-1.04777
-1.04283
-1.04283
-1.04284
-1.04284
-1.04284
-1.04226
-1.03945
-1.03971
-1.0397
-1.0397
-1.0397
-1.0397
-1.03789
-1.03789
-1.03789
-1.03789
-1.0379
-1.0378
-1.03691
-1.03694
-1.03693
-1.03693
-1.03693
-1.03693
-1.03644
-1.03644
-1.03645
-1.03645
-1.03645
-1.03645
-1.03624
-1.03622
-1.03621
-1.03621
-1.03621
-1.03621
-1.0361
-1.03611
-1.03611
-1.03611
-1.03612
-1.03615
-1.0362
-1.03618
-1.03618
-1.03617
-1.03617
-1.03617
-1.03639
-1.03639
-1.03639
-1.0364
-1.03639
-1.03638
-1.03673
-1.03678
-1.03679
-1.03679
-1.03678
-1.03678
-1.03745
-1.03745
-1.03745
-1.03745
-1.03745
-1.03731
-1.03826
-1.03851
-1.03851
-1.0385
-1.03851
-1.0385
-1.04008
-1.04009
-1.04008
-1.04009
-1.04009
-1.03968
-1.0416
-1.04227
-1.04227
-1.04227
-1.04227
-1.04226
-1.04504
-1.04505
-1.04504
-1.04505
-1.04505
-1.04392
-1.04732
-1.04861
-1.04861
-1.04861
-1.04862
-1.0486
-1.13718
-1.13717
-1.13718
-1.13718
-1.13718
-1.13822
-1.13592
-1.1335
-1.13241
-1.13151
-1.13075
-1.13012
-1.12981
-1.1298
-1.1298
-1.12978
-1.12979
-1.13039
-1.13039
-1.13041
-1.13041
-1.13043
-1.13116
-1.13114
-1.13113
-1.13111
-1.13111
-1.13197
-1.13198
-1.132
-1.13202
-1.13204
-1.13309
-1.13307
-1.13304
-1.13302
-1.13301
-1.1351
-1.1351
-1.13511
-1.13513
-1.13515
-1.22033
-1.22031
-1.2203
-1.22029
-1.22028
-1.20691
-1.20693
-1.20695
-1.20697
-1.207
-1.2026
-1.20257
-1.20256
-1.20254
-1.20253
-1.19887
-1.19888
-1.19889
-1.1989
-1.19892
-1.19586
-1.19584
-1.19584
-1.19583
-1.19582
-1.19327
-1.19328
-1.19328
-1.19329
-1.1933
-1.19359
-1.19618
-1.19927
-1.20298
-1.20744
-1.22273
-1.22545
-1.20732
-1.203
-1.1994
-1.19641
-1.1939
-1.13069
-1.13134
-1.1321
-1.13302
-1.13413
-1.13702
-1.13758
-1.13438
-1.13331
-1.13243
-1.13168
-1.13106
-1.06655
-1.06511
-1.06339
-1.06132
-1.05884
-1.053
-0.965411
-0.989284
-0.994899
-0.999575
-1.00347
-1.00672
-1.00718
-1.00403
-1.00026
-0.995721
-0.990282
-0.967237
-0.907559
-0.931629
-0.938911
-0.944981
-0.950037
-0.954244
-0.910619
-0.905169
-0.898629
-0.89078
-0.881365
-0.852523
-0.807845
-0.842675
-0.854925
-0.865133
-0.87364
-0.880729
-0.86538
-0.857034
-0.847016
-0.834995
-0.82057
-0.785368
-0.784282
-0.819623
-0.834356
-0.846631
-0.856861
-0.865383
-0.880738
-0.873303
-0.864387
-0.853681
-0.840837
-0.805561
-0.805034
-0.839328
-0.852606
-0.863666
-0.872883
-0.880562
-0.880319
-0.872123
-0.862284
-0.850476
-0.836304
-0.802524
-0.798771
-0.796106
-0.795948
-0.795811
-0.795706
-0.79561
-0.834191
-0.848997
-0.861337
-0.871621
-0.880186
-0.880184
-0.871625
-0.861346
-0.849012
-0.834214
-0.834238
-0.849027
-0.861355
-0.871624
-0.880178
-0.88017
-0.871623
-0.861363
-0.849047
-0.834269
-0.834303
-0.849069
-0.861372
-0.871625
-0.880162
-0.880206
-0.871705
-0.861499
-0.84925
-0.83455
-0.871394
-0.883681
-0.893928
-0.902458
-0.909567
-0.909242
-0.902106
-0.893548
-0.883267
-0.870937
-0.870883
-0.883233
-0.893529
-0.902103
-0.909245
-0.909243
-0.902093
-0.893504
-0.883208
-0.870843
-0.870804
-0.883183
-0.89349
-0.902086
-0.909243
-0.909245
-0.902079
-0.893482
-0.883163
-0.870779
-0.837164
-0.837289
-0.837432
-0.837602
-0.83781
-0.84085
-0.812892
-0.807884
-0.8073