/*--------------------------------*- C++ -*----------------------------------*\
| =========                 |                                                 |
| \\      /  F ield         | OpenFOAM: The Open Source CFD Toolbox           |
|  \\    /   O peration     | Version:  2212                                  |
|   \\  /    A nd           | Website:  www.openfoam.com                      |
|    \\/     M anipulation  |                                                 |
\*---------------------------------------------------------------------------*/
FoamFile
{
    version     2.0;
    format      ascii;
    arch        "LSB;label=32;scalar=64";
    class       volScalarField;
    location    "310";
    object      T;
}
// * * * * * * * * * * * * * * * * * * * * * * * * * * * * * * * * * * * * * //

dimensions      [0 0 0 1 0 0 0];

internalField   nonuniform List<scalar> 
248319
(
310.816
310.693
310.767
310.819
310.85
310.859
310.861
310.932
310.936
310.941
310.932
310.9
310.837
310.908
310.952
310.955
310.945
310.938
310.935
310.914
310.935
310.956
310.979
310.987
310.967
310.87
310.886
310.826
310.791
310.796
310.801
310.889
310.892
310.893
310.9
310.895
310.793
310.366
310.608
310.731
310.79
310.818
310.827
310.821
310.802
310.745
310.654
310.546
310.291
310.177
310.388
310.503
310.629
310.722
310.757
310.939
310.922
310.869
310.804
310.752
310.662
310.787
310.874
310.916
310.953
310.974
310.977
311.115
311.112
311.093
311.055
310.982
310.506
310.683
310.955
311.013
311.015
311.002
310.995
310.968
310.97
310.977
310.985
310.97
310.805
310.895
310.977
311.026
311.051
311.037
311.002
310.72
310.671
310.607
310.542
310.466
310.373
310.41
310.499
310.564
310.629
310.692
310.732
310.379
310.323
310.246
310.164
310.073
309.973
309.878
310.054
310.247
310.422
310.522
310.55
310.452
310.408
310.267
310.054
309.865
309.728
309.574
309.68
309.866
310.11
310.297
310.359
310.331
310.257
310.042
309.776
309.56
309.423
310.062
310.247
310.34
310.485
310.606
310.652
310.876
310.852
310.779
310.699
310.642
310.547
310.209
310.771
310.928
311.027
311.094
311.116
311.143
311.129
311.084
311.016
310.916
310.381
310.141
311.014
311.149
311.219
311.257
311.269
311.176
311.177
311.171
311.143
311.054
310.3
310.491
310.985
311.031
311.012
310.984
310.972
310.971
310.97
310.977
310.988
310.977
310.666
310.766
310.894
310.984
311.047
311.068
311.057
310.756
310.698
310.616
310.521
310.414
310.293
309.924
310.077
310.214
310.349
310.478
310.584
310.505
310.417
310.314
310.21
310.104
309.993
309.733
309.865
309.988
310.117
310.255
310.385
310.296
310.198
310.085
309.975
309.861
309.741
309.677
309.885
310.098
310.295
310.416
310.451
310.382
310.338
310.191
309.963
309.739
309.518
309.35
309.545
309.778
310.04
310.233
310.294
310.258
310.183
309.964
309.69
309.444
309.233
309.201
309.436
309.684
309.952
310.18
310.269
310.353
310.268
310.041
309.771
309.532
309.341
310.053
310.179
310.26
310.404
310.543
310.597
310.843
310.813
310.727
310.644
310.579
310.457
310.085
310.605
310.853
310.994
311.083
311.113
311.286
311.263
311.175
311
310.663
309.709
309.97
310.89
311.099
311.205
311.26
311.277
311.432
311.426
311.405
311.366
311.242
309.842
310.042
311.227
311.312
311.337
311.346
311.347
311.125
311.134
311.156
311.161
311.088
310.128
310.341
310.94
310.971
310.931
310.888
310.872
310.931
310.93
310.942
310.958
310.946
310.54
310.612
310.78
310.908
311.01
311.065
311.076
310.792
310.709
310.588
310.452
310.311
310.161
309.84
310.011
310.177
310.348
310.514
310.646
310.542
310.381
310.19
310.002
309.826
309.659
309.7
309.852
310.003
310.161
310.323
310.468
310.377
310.206
310.025
309.857
309.703
309.558
309.562
309.694
309.824
309.968
310.13
310.292
310.231
310.105
309.972
309.848
309.722
309.591
309.558
309.805
310.037
310.241
310.366
310.402
310.353
310.311
310.168
309.935
309.688
309.403
309.226
309.477
309.744
310.018
310.203
310.257
310.198
310.132
309.923
309.638
309.365
309.118
309.085
309.328
309.592
309.867
310.083
310.159
310.131
310.055
309.855
309.61
309.369
309.139
309.298
309.536
309.769
310.011
310.222
310.312
310.402
310.318
310.101
309.846
309.603
309.378
310.1
310.17
310.234
310.375
310.521
310.581
310.833
310.8
310.715
310.639
310.577
310.448
310.16
310.597
310.854
311.008
311.106
311.14
311.33
311.298
311.188
310.97
310.573
309.746
309.401
311.118
311.475
311.553
311.588
311.6
311.501
311.491
311.461
311.403
311.181
309.494
309.222
310.921
311.485
311.748
311.826
311.843
311.68
311.678
311.659
311.573
311.291
309.651
309.864
311.32
311.402
311.379
311.345
311.331
310.938
310.954
310.996
311.027
310.981
309.905
310.032
310.771
310.821
310.776
310.721
310.7
310.842
310.843
310.864
310.889
310.863
310.285
310.355
310.591
310.777
310.932
311.031
311.068
310.805
310.676
310.494
310.298
310.108
309.927
309.669
309.863
310.069
310.292
310.512
310.683
310.607
310.42
310.186
309.956
309.748
309.563
309.531
309.709
309.91
310.136
310.366
310.553
310.472
310.295
310.094
309.902
309.726
309.564
309.51
309.663
309.831
310.02
310.223
310.409
310.307
310.119
309.927
309.756
309.604
309.464
309.444
309.57
309.703
309.854
310.031
310.216
310.173
310.028
309.882
309.751
309.62
309.481
309.481
309.764
310.008
310.213
310.335
310.369
310.333
310.293
310.158
309.929
309.673
309.331
309.155
309.456
309.739
310.011
310.182
310.23
310.162
310.106
309.911
309.619
309.327
309.055
309.024
309.273
309.553
309.839
310.05
310.116
310.104
310.03
309.824
309.559
309.301
309.067
309.226
309.444
309.67
309.893
310.075
310.149
310.136
310.07
309.914
309.724
309.526
309.32
309.556
309.772
309.962
310.15
310.32
310.398
310.486
310.413
310.23
310.017
309.803
309.58
310.226
310.22
310.25
310.392
310.544
310.607
310.879
310.848
310.765
310.697
310.653
310.542
310.308
310.747
310.967
311.092
311.178
311.208
311.425
311.4
311.321
311.172
310.856
309.946
309.594
311.267
311.593
311.677
311.707
311.717
312.108
312.06
311.876
311.491
310.889
309.222
309.104
310.738
311.397
311.796
311.956
311.993
311.862
311.779
311.478
310.898
310.118
308.802
308.932
310.358
311.067
311.566
311.822
311.892
311.845
311.821
311.708
311.417
310.922
309.372
309.638
311.166
311.322
311.3
311.242
311.215
310.632
310.654
310.711
310.76
310.741
309.704
309.792
310.514
310.595
310.555
310.495
310.471
310.711
310.713
310.742
310.77
310.718
309.929
309.982
310.276
310.536
310.772
310.939
311.017
310.767
310.57
310.308
310.05
309.83
309.662
309.511
309.679
309.898
310.167
310.453
310.678
310.636
310.417
310.134
309.864
309.644
309.474
309.492
309.675
309.893
310.153
310.415
310.612
310.588
310.417
310.185
309.948
309.741
309.538
309.533
309.701
309.891
310.106
310.327
310.509
310.467
310.294
310.086
309.885
309.708
309.55
309.48
309.62
309.779
309.962
310.165
310.355
310.246
310.045
309.848
309.678
309.531
309.4
309.356
309.477
309.608
309.762
309.948
310.151
310.12
309.96
309.805
309.674
309.543
309.403
309.426
309.741
309.992
310.196
310.31
310.342
310.314
310.277
310.151
309.931
309.672
309.288
309.121
309.454
309.743
310.006
310.162
310.205
310.137
310.087
309.908
309.623
309.323
309.026
309.005
309.254
309.544
309.839
310.044
310.103
310.112
310.039
309.826
309.548
309.281
309.054
309.212
309.432
309.67
309.91
310.106
310.184
310.359
310.299
310.162
310.002
309.832
309.647
309.642
309.809
309.965
310.11
310.233
310.288
310.198
310.163
310.087
309.991
309.877
309.739
310.048
310.188
310.272
310.366
310.472
310.53
310.619
310.55
310.399
310.244
310.109
309.974
310.556
310.707
310.724
310.751
310.817
310.853
310.98
310.963
310.909
310.879
310.842
310.691
310.506
311.03
311.127
311.178
311.235
311.259
311.495
311.479
311.44
311.408
311.338
310.223
309.909
311.474
311.691
311.748
311.774
311.785
312.164
312.117
311.95
311.634
311.171
309.504
309.152
310.692
311.27
311.706
311.962
312.044
311.948
311.868
311.581
311.042
310.305
308.893
308.679
309.733
310.577
311.255
311.633
311.741
311.626
311.525
311.137
310.422
309.572
308.61
308.717
309.812
310.589
311.209
311.541
311.639
311.719
311.655
311.423
311.003
310.43
309.125
309.429
310.841
311.13
311.2
311.169
311.145
310.316
310.337
310.394
310.459
310.494
309.557
309.68
310.273
310.355
310.328
310.275
310.253
310.564
310.559
310.568
310.567
310.511
309.757
309.765
309.945
310.198
310.489
310.734
310.868
310.624
310.361
310.056
309.818
309.662
309.539
309.453
309.591
309.752
309.995
310.31
310.582
310.587
310.343
310.038
309.783
309.609
309.463
309.52
309.709
309.887
310.129
310.395
310.597
310.6
310.44
310.225
310.018
309.854
309.613
309.762
310.037
310.166
310.321
310.479
310.6
310.566
310.419
310.222
310.018
309.834
309.608
309.736
309.958
310.105
310.266
310.421
310.542
310.433
310.273
310.081
309.895
309.732
309.571
309.463
309.592
309.741
309.917
310.117
310.308
310.191
309.982
309.783
309.616
309.476
309.354
309.293
309.406
309.533
309.686
309.877
310.092
310.069
309.898
309.738
309.609
309.482
309.344
309.383
309.728
309.983
310.182
310.287
310.317
310.293
310.259
310.142
309.932
309.677
309.26
309.102
309.458
309.745
309.997
310.141
310.179
310.118
310.073
309.905
309.626
309.326
309.019
309.011
309.251
309.545
309.847
310.046
310.101
310.131
310.057
309.838
309.551
309.282
309.071
309.235
309.449
309.693
309.943
310.147
310.228
310.449
310.39
310.255
310.09
309.91
309.711
310.92
310.953
310.956
310.944
310.945
310.953
310.822
310.795
310.751
310.727
310.726
310.699
310.606
310.64
310.681
310.734
310.795
310.83
310.9
310.865
310.808
310.763
310.727
310.679
311.018
311.116
311.185
311.204
311.204
311.207
311.222
311.193
311.135
311.042
310.879
310.703
311.069
311.245
311.333
311.405
311.468
311.497
311.724
311.696
311.618
311.507
311.327
311.065
310.546
310.996
311.083
311.1
311.137
311.155
311.462
311.446
311.416
311.408
311.355
310.258
309.901
311.295
311.634
311.773
311.815
311.83
312.095
312.026
311.785
311.38
310.868
309.458
309.088
310.409
311.013
311.52
311.838
311.938
311.769
311.663
311.292
310.703
310.025
308.848
308.918
310.285
310.954
311.48
311.783
311.874
311.744
311.646
311.287
310.673
309.928
308.775
308.561
309.353
310.192
310.959
311.424
311.558
311.419
311.29
310.799
309.984
309.156
308.517
308.599
309.396
310.182
310.895
311.305
311.42
311.473
311.393
311.121
310.63
310.023
308.959
309.275
310.563
310.964
311.216
311.285
311.288
310.312
310.328
310.39
310.523
310.534
309.472
309.648
310.21
310.219
310.194
310.158
310.144
310.389
310.376
310.358
310.335
310.289
309.742
309.745
309.839
309.948
310.12
310.329
310.478
310.273
310.069
309.879
309.736
309.622
309.516
309.463
309.582
309.713
309.871
310.078
310.293
310.352
310.151
309.932
309.762
309.625
309.502
309.578
309.753
309.888
310.05
310.243
310.408
310.455
310.336
310.191
310.061
309.945
309.703
309.924
310.21
310.289
310.369
310.451
310.518
310.89
310.875
310.849
310.817
310.777
310.435
310.061
310.344
310.416
310.496
310.58
310.647
310.952
310.933
310.908
310.881
310.849
310.579
309.995
310.2
310.286
310.382
310.478
310.557
310.402
310.257
310.087
309.924
309.78
309.623
309.458
309.577
309.716
309.884
310.078
310.267
310.142
309.928
309.729
309.567
309.434
309.322
309.248
309.352
309.473
309.623
309.815
310.039
310.02
309.84
309.678
309.554
309.434
309.3
309.35
309.718
309.974
310.168
310.263
310.292
310.268
310.236
310.127
309.928
309.679
309.242
309.094
309.46
309.742
309.984
310.118
310.152
310.1
310.059
309.899
309.623
309.328
309.027
309.035
309.254
309.545
309.852
310.048
310.1
310.151
310.075
309.85
309.56
309.299
309.114
309.297
309.498
309.737
309.986
310.193
310.277
310.569
310.515
310.391
310.237
310.065
309.874
311.36
311.357
311.335
311.296
311.272
311.271
312.546
312.589
312.71
312.835
312.923
312.981
312.641
312.607
312.565
312.456
312.326
312.276
312.058
312.135
312.337
312.531
312.597
312.583
312.769
312.664
312.435
312.127
311.876
311.789
311.49
311.559
311.826
312.259
312.682
313.002
313.087
312.233
311.701
311.495
311.454
311.457
311.641
311.632
311.647
311.792
312.089
312.432
311.601
311.54
311.473
311.455
311.477
311.496
311.801
311.793
311.8
311.903
312.112
312.374
312.242
312.213
312.118
312.056
312.06
312.072
311.948
311.92
311.843
311.723
311.478
310.939
310.692
311.244
311.628
311.932
312.081
312.122
312.075
311.987
311.713
311.308
310.903
310.407
310.19
310.621
311.044
311.477
311.804
311.917
311.767
311.645
311.288
310.85
310.445
310.07
310.029
310.373
310.754
311.189
311.574
311.719
311.678
311.548
311.102
310.433
309.681
308.716
308.647
309.486
310.244
310.955
311.465
311.633
311.695
311.581
311.166
310.476
309.684
308.709
308.5
309.121
309.91
310.718
311.264
311.43
311.263
311.094
310.51
309.67
308.938
308.491
308.56
309.132
309.876
310.642
311.127
311.264
311.306
311.218
310.896
310.35
309.738
308.872
309.179
310.315
310.77
311.13
311.329
311.382
310.928
310.935
310.954
310.902
310.673
309.427
309.675
310.522
310.489
310.436
310.413
310.407
310.364
310.351
310.316
310.291
310.293
309.774
309.755
309.847
309.938
310.052
310.185
310.279
310.181
310.025
309.866
309.736
309.627
309.524
309.506
309.606
309.725
309.87
310.048
310.22
310.282
310.122
309.94
309.786
309.665
309.569
309.655
309.804
309.926
310.071
310.231
310.36
310.456
310.368
310.251
310.136
310.029
309.801
310.094
310.393
310.461
310.524
310.581
310.618
311.362
311.355
311.333
311.302
311.256
310.815
311.607
312.102
312.061
311.963
311.84
311.728
311.414
311.45
311.486
311.512
311.516
311.168
311.802
312.043
311.895
311.662
311.423
311.241
311.086
311.148
311.226
311.301
311.352
311.181
310.411
310.589
310.623
310.653
310.68
310.703
310.376
310.253
310.114
309.989
309.885
309.76
309.463
309.573
309.703
309.862
310.049
310.232
310.098
309.882
309.686
309.53
309.405
309.301
309.217
309.312
309.426
309.57
309.762
309.99
309.972
309.786
309.625
309.507
309.394
309.267
309.323
309.708
309.964
310.15
310.237
310.265
310.237
310.208
310.106
309.917
309.674
309.23
309.092
309.455
309.729
309.962
310.088
310.119
310.075
310.037
309.88
309.609
309.322
309.041
309.069
309.251
309.529
309.834
310.033
310.086
310.142
310.061
309.832
309.547
309.306
309.158
309.335
309.514
309.737
309.98
310.186
310.273
310.574
310.527
310.414
310.273
310.121
309.961
311.485
311.461
311.416
311.357
311.313
311.295
312.56
312.617
312.727
312.826
312.879
312.892
313.476
313.276
313.128
312.976
312.867
312.84
313.671
316.145
325.864
359.355
438.328
428.122
346.549
320.034
314.468
313.282
313.184
313.61
315.98
333.752
413.554
400.872
326.892
314.765
313.559
313.31
313.483
313.72
314.74
325.699
397.986
405.874
328.379
315.314
314.043
313.752
313.978
314.328
316.162
332.59
415.002
413.089
331.84
316.251
314.656
314.482
314.405
314.64
314.699
314.841
316.097
329.672
407.823
402.673
327.366
315.608
314.634
314.537
314.355
314.446
315.36
326.616
400.856
406.932
328.541
315.442
314.268
314.119
313.895
314.302
316.78
336.213
422.376
441.673
353.59
322.568
315.776
314.2
315.734
320.095
333.721
372.522
452.867
453.72
373.542
333.275
319.539
315.463
314.427
316
323.188
355.445
442.945
425.467
338.424
317.473
314.689
314.265
314.522
314.674
316.035
330.512
411.089
404.777
328.204
315.909
314.895
314.803
315.057
315.113
316.078
328.208
404.632
405.41
328.765
316.423
315.445
315.391
315.374
315.027
314.752
314.441
314.089
313.836
313.783
313.613
313.71
314.009
314.384
314.703
314.957
314.796
314.525
314.188
313.798
313.498
313.403
313.134
313.224
313.527
313.945
314.316
314.602
314.357
314.058
313.664
313.217
312.909
312.826
312.238
312.267
312.436
312.837
313.371
314.068
313.437
312.891
312.519
312.28
312.193
312.182
311.973
311.991
312.089
312.343
312.763
313.322
312.711
312.258
311.96
311.819
311.804
311.815
312.042
312.041
312.075
312.241
312.583
313.643
313.575
312.618
312.18
311.972
311.924
311.925
312.143
312.142
312.172
312.316
312.595
313.965
314.174
312.791
312.488
312.363
312.334
312.335
312.296
312.291
312.301
312.424
312.578
312.069
311.84
312.802
313.066
313.126
313.091
313.072
313.398
313.375
313.267
312.99
312.539
311.571
311.34
312.279
312.835
313.201
313.351
313.386
313.349
313.313
313.136
312.714
312.099
311.29
311.37
312.094
312.707
313.142
313.333
313.374
311.709
311.556
311.162
310.738
310.375
310.052
310.13
310.451
310.809
311.226
311.622
311.789
311.624
311.439
310.89
310.161
309.41
308.635
308.711
309.524
310.34
311.09
311.557
311.691
311.346
311.155
310.553
309.734
309.003
308.491
308.511
308.84
309.479
310.303
310.954
311.169
311.158
311.004
310.459
309.67
308.979
308.587
308.851
309.549
310.152
310.737
311.107
311.214
311.306
311.237
311.001
310.601
310.131
309.14
309.399
310.637
311.003
311.263
311.4
311.439
311.1
311.089
311.05
311.008
310.891
309.712
309.81
310.584
310.588
310.605
310.645
310.653
310.327
310.211
310.066
309.95
309.86
309.77
309.55
309.653
309.761
309.891
310.055
310.233
310.275
310.084
309.901
309.761
309.655
309.573
309.661
309.733
309.843
309.993
310.183
310.365
310.471
310.322
310.15
310.004
309.888
309.759
309.926
310.145
310.252
310.373
310.502
310.608
310.829
310.794
310.738
310.679
310.614
310.291
311.109
311.649
311.712
311.757
311.791
311.808
311.853
312.043
312.273
312.456
312.515
311.829
312.373
312.736
312.559
312.111
311.647
311.32
311.249
311.544
311.947
312.337
312.537
312.173
312.23
312.197
311.943
311.565
311.156
310.82
310.824
311.125
311.495
311.84
312.083
312.093
311.647
311.627
311.471
311.266
311.051
310.874
310.761
310.804
310.856
310.905
310.939
310.886
310.027
310.107
310.166
310.239
310.325
310.404
310.203
310.03
309.853
309.704
309.583
309.488
309.288
309.385
309.502
309.652
309.844
310.059
309.945
309.715
309.527
309.388
309.282
309.197
309.243
309.364
309.468
309.58
309.737
309.926
310.236
310.21
310.131
309.952
309.697
309.301
309.221
309.661
309.895
310.076
310.172
310.199
310.077
310.048
309.928
309.702
309.438
309.092
309.057
309.302
309.575
309.841
309.997
310.034
310.042
309.988
309.783
309.484
309.232
309.101
309.175
309.277
309.49
309.765
309.999
310.084
310.195
310.101
309.89
309.654
309.446
309.282
309.819
309.974
310.128
310.268
310.395
310.46
311.234
311.286
311.351
311.395
311.426
311.455
313.115
313.505
313.869
315.494
331.271
415.794
410.377
411.788
417.917
421.589
423.771
347.467
342.582
335.694
330.207
328.824
314.889
314.988
316.126
318.7
321.364
314.602
313.851
313.373
313.355
313.531
313.241
313.026
312.855
312.812
312.902
312.246
312.34
312.507
312.719
312.935
312.801
312.509
312.213
311.965
311.8
312.235
312.354
312.556
312.816
313.098
313.433
313.215
313.116
313.174
313.274
317.497
316.929
316.123
315.571
315.618
336.142
335.051
336.275
336.637
336.751
409.821
412.12
418.526
422.989
424.329
427.499
339.425
317.2
313.968
313.458
313.015
313.129
313.622
314.44
318.619
342.24
429.277
418.247
333.821
316.132
314.056
313.606
313.232
313.607
313.709
314.048
314.477
317.101
337.377
421.224
424.923
338.652
317.529
314.902
314.639
314.603
314.691
314.805
315.03
316.863
334.109
417.114
409.828
330.676
316.877
315.738
315.686
315.679
315.802
315.815
315.873
317.112
331.569
411.128
404.957
328.909
316.487
315.475
315.409
315.371
315.001
315.032
315.103
316.042
327.757
402.427
401.679
407.625
420.489
436.313
447.817
367.365
350.868
336.38
329.505
327.432
315.827
315.918
317.108
321.655
329.206
317.566
315.504
314.633
314.672
314.879
314.798
314.543
314.291
314.284
314.696
313.852
313.926
314.178
314.493
314.758
314.718
314.47
314.16
313.881
313.776
313.647
313.742
314.012
314.322
314.558
314.731
314.476
314.325
314.081
313.751
313.49
313.408
313.018
313.079
313.32
313.706
314.03
314.222
314.043
313.347
312.885
312.569
312.454
312.439
312.333
312.34
312.414
312.633
312.974
313.508
313.839
313.161
312.816
312.591
312.501
312.484
312.362
312.38
312.479
312.738
313.148
313.905
313.917
313.108
312.64
312.36
312.252
312.232
312.431
312.454
312.57
312.867
313.385
314.374
314.256
312.742
312.43
312.279
312.244
312.244
312.388
312.393
312.434
312.571
312.898
314.511
314.858
313.684
313.319
313.043
312.895
312.859
312.949
312.988
313.113
313.314
313.506
314.443
314.642
313.72
313.654
313.646
313.644
313.641
313.682
313.683
313.685
313.708
313.821
314.809
314.939
313.976
313.794
313.732
313.715
313.712
313.75
313.763
313.807
313.931
314.204
315.031
315.099
314.489
314.124
313.921
313.836
313.813
313.434
313.404
313.224
312.804
312.216
311.553
311.846
312.474
313.023
313.404
313.551
313.57
311.906
311.743
311.359
310.958
310.601
310.271
308.674
309.422
310.173
310.911
311.486
311.696
311.712
311.569
311.057
310.279
309.48
308.771
308.523
308.97
309.654
310.467
311.11
311.335
311.109
310.866
310.179
309.389
308.827
308.566
308.669
308.909
309.547
310.346
310.939
311.121
311.164
311.05
310.645
310.035
309.449
308.888
309.148
310.008
310.485
310.917
311.183
311.263
311.486
311.431
311.249
310.941
310.553
309.404
309.731
310.979
311.18
311.278
311.352
311.378
310.815
310.811
310.764
310.744
310.748
309.832
309.79
309.892
309.984
310.104
310.261
310.397
310.291
310.096
309.925
309.796
309.692
309.599
309.665
309.73
309.828
309.965
310.155
310.366
310.478
310.275
310.074
309.926
309.827
309.779
309.89
310.002
310.115
310.266
310.452
310.623
310.806
310.687
310.543
310.413
310.302
310.083
310.486
310.824
310.897
310.967
311.033
311.081
312.103
312.091
312.053
311.979
311.891
311.279
311.93
312.741
312.714
312.496
312.24
312.032
311.438
311.743
312.157
312.571
312.789
312.569
312.125
311.956
311.701
311.386
311.064
310.805
310.818
311.128
311.496
311.847
312.111
312.218
310.862
310.793
310.645
310.456
310.248
310.071
310.145
310.385
310.672
310.938
311.14
311.243
311.554
311.405
311.164
310.853
310.524
310.259
310.427
310.639
310.908
311.17
311.384
311.577
311.15
311.02
310.914
310.791
310.668
310.572
310.425
310.394
310.368
310.353
310.343
310.344
309.579
309.619
309.719
309.855
310.017
310.177
310.023
309.811
309.623
309.48
309.37
309.284
309.186
309.264
309.363
309.494
309.677
309.906
309.88
309.69
309.537
309.433
309.337
309.225
309.281
309.685
309.937
310.11
310.184
310.208
310.153
310.128
310.037
309.863
309.639
309.213
309.094
309.411
309.661
309.88
309.995
310.022
309.971
309.935
309.781
309.522
309.271
309.075
309.133
309.2
309.416
309.701
309.909
309.965
309.986
309.896
309.66
309.402
309.227
309.175
309.172
309.307
309.502
309.738
309.959
310.061
310.328
310.239
310.074
309.895
309.724
309.548
311.418
311.376
311.337
311.251
311.133
311.038
310.787
310.91
311.072
311.202
311.286
311.362
312.955
313.466
314.445
320.134
348.154
435.776
429.942
422.528
409.523
398.585
396.748
328.094
329.083
332.112
335.446
340.633
316.219
315.462
315.112
314.776
314.553
312.186
312.383
312.636
312.923
313.256
312.898
312.527
312.165
311.843
311.619
311.352
311.565
311.882
312.253
312.631
312.587
312.021
311.547
311.164
310.923
311.121
311.402
311.82
312.297
312.915
314.108
312.807
312.216
311.783
311.467
312.943
313.42
314.354
316.538
320.237
347.632
338.403
329.735
324.951
323.665
390.69
393.148
407.236
421.622
431.6
441.839
361.023
328.485
317.893
314.638
313.192
313.832
316.766
321.813
334.804
368.486
446.028
438.019
352.486
323.207
315.757
313.916
313.12
313.33
314.09
316.179
324.545
355.508
440.408
431.253
344.819
319.344
314.544
313.698
313.308
313.426
313.686
314.13
316.696
336.438
419.696
419.696
337.324
317.026
314.3
313.888
313.687
313.869
314.16
314.62
317.672
339.558
423.27
431.575
343.329
318.575
315.105
314.71
314.629
314.709
314.884
315.179
317.321
336.308
421.151
411.272
331.323
317.163
316.009
315.97
315.979
316.284
316.274
316.302
317.62
333.097
414.353
425.135
338.564
318.533
316.456
316.387
316.37
315.791
315.844
315.95
317.74
335.608
419.976
410.599
331.073
316.774
315.484
315.385
315.314
314.945
314.721
314.494
314.219
313.974
313.886
314.437
316.632
326.445
361.141
440.874
433.754
349.599
321.089
315.284
314.236
314.309
314.636
317.265
337.719
423.297
412.469
331.059
316.086
314.679
314.545
314.775
314.871
315.949
328.702
406.18
406.236
328.964
316.173
315.091
314.999
315.011
315.108
316.521
331.765
413.991
418.631
333.196
316.514
314.911
314.784
314.561
314.744
316.883
336.713
425.629
430.537
343.101
318.26
314.739
314.332
314.223
315.229
321.1
349
429.969
430.236
352.845
323.799
315.971
314.289
313.903
313.993
314.235
314.504
314.73
314.97
314.539
314.441
314.331
314.169
313.979
313.882
313.886
313.982
314.18
314.351
314.464
314.557
314.244
314.206
314.141
313.997
313.829
313.756
313.585
313.648
313.821
313.995
314.056
314.016
313.818
313.769
313.575
313.32
313.148
313.098
313.056
313.129
313.329
313.589
313.795
313.906
313.841
313.496
313.174
312.906
312.77
312.743
312.61
312.658
312.822
313.119
313.482
313.841
313.829
313.47
313.145
312.877
312.728
312.688
312.746
312.786
312.925
313.15
313.383
313.549
313.826
313.289
312.954
312.723
312.621
312.597
312.523
312.546
312.66
312.936
313.365
314.09
313.974
313.176
312.885
312.685
312.594
312.573
312.518
312.535
312.618
312.815
313.152
314.474
314.538
313.562
313.21
312.937
312.805
312.772
313.312
313.348
313.437
313.546
313.717
314.637
315.125
314.068
313.838
313.712
313.643
313.613
313.67
313.693
313.773
313.94
314.24
315.325
315.505
314.415
314.036
313.813
313.707
313.675
313.676
313.713
313.846
314.128
314.59
315.693
315.888
314.753
314.212
313.869
313.703
313.655
313.618
313.67
313.864
314.265
314.884
316.089
315.235
314.803
314.369
314.072
313.93
313.889
313.965
314.021
314.22
314.6
315.095
315.451
312.255
312.845
313.335
313.656
313.749
313.746
312.105
311.949
311.586
311.2
310.831
310.479
308.771
309.522
310.28
311.019
311.596
311.813
311.798
311.643
311.111
310.325
309.537
308.881
308.596
309.013
309.667
310.467
311.127
311.369
311.118
310.849
310.147
309.387
308.873
308.649
308.783
308.932
309.491
310.306
310.93
311.128
311.17
311.046
310.611
309.979
309.426
308.964
309.201
309.967
310.437
310.891
311.177
311.262
311.493
311.431
311.23
310.903
310.512
309.445
309.77
311.022
311.267
311.391
311.472
311.5
310.92
310.918
310.876
310.87
310.888
309.87
309.832
309.938
310.032
310.158
310.327
310.484
310.394
310.177
309.995
309.864
309.763
309.675
309.782
309.831
309.921
310.058
310.258
310.494
310.645
310.414
310.197
310.044
309.952
309.92
310.049
310.154
310.27
310.434
310.641
310.837
311.077
310.934
310.766
310.617
310.493
310.272
310.696
311.051
311.145
311.237
311.325
311.392
312.321
312.284
312.212
312.105
311.991
311.393
312.067
312.843
312.858
312.692
312.477
312.297
311.633
311.887
312.228
312.584
312.852
312.772
312.002
311.804
311.574
311.322
311.076
310.883
310.074
310.16
310.265
310.353
310.391
310.338
310.513
310.484
310.397
310.291
310.163
310.05
309.393
309.448
309.52
309.589
309.635
309.646
309.907
309.901
309.837
309.731
309.609
309.506
309.672
309.832
310.022
310.186
310.29
310.306
310.799
310.689
310.521
310.294
310.046
309.846
310.058
310.251
310.501
310.743
310.938
311.15
311.103
310.867
310.73
310.575
310.423
310.31
310.382
310.385
310.399
310.421
310.447
310.551
309.718
309.684
309.756
309.865
310.005
310.151
309.989
309.782
309.6
309.464
309.363
309.287
309.18
309.25
309.341
309.465
309.642
309.868
309.838
309.649
309.503
309.408
309.319
309.214
309.264
309.672
309.92
310.089
310.157
310.178
310.097
310.073
309.986
309.82
309.607
309.207
309.1
309.375
309.607
309.817
309.928
309.953
309.889
309.854
309.703
309.457
309.235
309.101
309.173
309.171
309.338
309.601
309.807
309.865
309.859
309.768
309.536
309.302
309.174
309.182
309.061
309.163
309.335
309.562
309.789
309.897
310.165
310.053
309.847
309.634
309.441
309.268
309.056
309.198
309.39
309.622
309.853
309.969
310.501
310.624
310.795
310.95
311.079
311.237
310.802
310.678
310.561
310.43
310.297
310.202
310.171
310.276
310.679
311.176
311.869
313.118
314.089
312.103
311.219
310.617
310.237
310.14
310.495
310.781
311.254
311.843
313.108
315.926
312.552
311.314
310.87
310.591
310.925
311.141
311.729
314.793
321.242
334.542
323.088
315.449
313.745
314.068
337.734
334.823
341.32
353.934
368.642
448.419
441.659
433.242
422.308
425.543
446.341
440.101
442.685
445.591
449.311
371.877
362.328
355.377
353.413
360.64
320.863
318.713
320.337
327.885
338.631
325.257
317.061
312.605
311.559
311.62
310.487
310.696
311.22
313.364
318.632
313.899
311.825
311.053
310.647
310.362
309.947
310.057
310.44
311.062
312.372
317.67
322.601
336.044
345.442
358.783
386.684
454.58
456.992
392.066
367.837
356.541
347.507
329.455
323.098
337.293
350.946
372.644
408.049
465.958
455.427
387.052
351.195
333.032
323.722
316.009
316.558
326.354
336.651
356.002
392.893
459.668
449.214
372.666
337.694
323.517
317.733
314.2
314.496
317.843
323.562
337.941
373.631
450.283
441.082
356.174
324.626
316.237
314.275
313.598
313.554
313.861
314.531
319.132
345.016
431.644
431.041
344.368
319.046
314.819
314.338
314.078
314.117
314.27
314.618
317.185
336.98
418.898
423.188
339.471
317.815
314.854
314.442
314.206
314.685
314.792
315.216
318.598
342.95
431.282
420.179
335.679
317.347
315.305
314.974
314.726
316.264
316.222
316.242
317.231
330.326
408.983
413.259
332.591
317.87
316.732
316.762
316.8
317.011
316.948
316.933
318.867
338.65
425.475
433.559
344.643
320.123
317.123
317.07
317.168
316.494
316.46
316.596
319.645
343.923
432.447
424.614
338.609
318.305
316.02
315.895
315.894
315.386
315.404
315.498
317.011
332.714
414.198
413.954
332.847
317.02
315.47
315.352
315.275
314.835
314.616
314.42
314.183
313.955
313.868
314.021
314.879
319.296
339.077
410.477
411.325
338.743
318.554
314.673
314.06
314.244
314.566
317.579
338.872
418.506
421.421
336.582
316.793
314.666
314.482
314.696
314.838
316.439
333.271
417.093
413.705
331.862
316.49
315.056
314.927
314.905
315.058
316.967
335.953
424.295
427.489
342.902
319.611
315.325
314.726
314.501
315.089
319.413
343.414
426.469
416.726
338.429
317.783
314.555
314.21
313.982
314.396
317.212
333.016
401.272
395.902
330.616
316.872
314.337
313.896
313.839
313.929
314.162
314.408
314.612
314.828
314.4
314.243
314.15
314.039
313.905
313.832
313.847
313.918
314.06
314.167
314.232
314.32
314.176
314.162
314.137
314.044
313.906
313.835
313.719
313.769
313.901
313.998
313.984
313.868
313.465
313.696
313.631
313.502
313.384
313.338
313.346
313.419
313.578
313.722
313.768
313.72
313.193
313.367
313.399
313.302
313.176
313.128
313.04
313.094
313.246
313.412
313.476
313.35
313.563
313.536
313.393
313.186
313.022