/*--------------------------------*- C++ -*----------------------------------*\
| =========                 |                                                 |
| \\      /  F ield         | OpenFOAM: The Open Source CFD Toolbox           |
|  \\    /   O peration     | Version:  2212                                  |
|   \\  /    A nd           | Website:  www.openfoam.com                      |
|    \\/     M anipulation  |                                                 |
\*---------------------------------------------------------------------------*/
FoamFile
{
    version     2.0;
    format      ascii;
    arch        "LSB;label=32;scalar=64";
    class       volScalarField;
    location    "300";
    object      p;
}
// * * * * * * * * * * * * * * * * * * * * * * * * * * * * * * * * * * * * * //

dimensions      [0 2 -2 0 0 0 0];

internalField   nonuniform List<scalar> 
247120
(
0
0.0211717
0.0431754
0.0550191
0.06488
0.0731062
0.0799644
0.140181
0.131433
0.120942
0.108356
0.0932633
0.0587912
0.0614149
0.0947524
0.111126
0.124782
0.136166
0.14566
0.153614
0.144461
0.133482
0.120313
0.104521
0.11437
0.129157
0.141487
0.151766
0.160335
0.161258
0.152605
0.142226
0.129777
0.114845
0.11524
0.130293
0.142842
0.153303
0.162026
0.162666
0.153884
0.143353
0.13072
0.115569
0.115841
0.131076
0.143781
0.154372
0.163201
0.163282
0.162762
0.16214
0.161396
0.1605
0.152107
0.152923
0.1536
0.154166
0.154641
0.144272
0.143855
0.143356
0.142758
0.142037
0.129956
0.13056
0.131063
0.131482
0.13183
0.116905
0.116636
0.116314
0.115925
0.115459
0.0795222
0.0797861
0.0800065
0.0801896
0.0803428
0.0176979
0.017655
0.0176023
0.0175384
0.0174618
0.011452
0.0219158
0.0269378
0.0270332
0.0271136
0.0271808
0.0272365
0.00353784
0.00349349
0.00344089
0.00337988
0.00330568
0.00101479
0.0296159
0.053176
0.0666046
0.0778043
0.0871354
0.0949225
0.101055
0.101736
0.102303
0.102777
0.103168
0.0954075
0.095048
0.0946179
0.0941026
0.0934813
0.0844072
0.084953
0.0854099
0.0857899
0.0861081
0.0749477
0.0746776
0.0743572
0.0739726
0.0735103
0.0604481
0.060812
0.0611131
0.061363
0.0615699
0.0340903
0.0339698
0.0338236
0.0336497
0.0334383
0.0765476
0.0768139
0.0770377
0.0772254
0.0773799
0.0701339
0.0729788
0.108054
0.124158
0.13758
0.148771
0.158101
0.155577
0.145515
0.133443
0.118961
0.101584
0.064082
0.0636463
0.10221
0.119959
0.134751
0.14708
0.157355
0.159685
0.1498
0.137942
0.123718
0.106651
0.112463
0.128046
0.141033
0.151858
0.160879
0.161585
0.152502
0.141605
0.12853
0.112842
0.11316
0.128935
0.142082
0.153039
0.162171
0.162662
0.153488
0.142479
0.129271
0.113423
0.113642
0.129552
0.142811
0.153861
0.16307
0.163015
0.153583
0.142265
0.128688
0.112394
0.112225
0.128474
0.142014
0.153302
0.162708
0.162339
0.152965
0.141715
0.128218
0.112022
0.111775
0.127907
0.141353
0.152559
0.161897
0.161366
0.152072
0.140919
0.127537
0.111481
0.105882
0.123279
0.137776
0.149859
0.15993
0.157308
0.146937
0.134494
0.119564
0.101648
0.0623677
0.0684971
0.0725028
0.0726716
0.0728109
0.0729269
0.0730241
0.0104949
0.0104677
0.0104358
0.0103988
0.0103522
0.00370512
0.00646177
0.0131242
0.0131834
0.0132314
0.0132735
0.0133071
-0.0635509
-0.0635533
-0.0635583
-0.0635632
-0.0635694
-0.0687426
-0.0632707
-0.0589249
-0.0589147
-0.0589055
-0.0588973
-0.0588913
-0.0557505
-0.0557709
-0.0557956
-0.0558261
-0.0558652
-0.059918
-0.0502432
-0.0403529
-0.0328292
-0.0265658
-0.0213293
-0.0169745
-0.016273
-0.0159625
-0.0157065
-0.0155039
-0.015333
-0.0194478
-0.0196354
-0.0198636
-0.0201327
-0.0204531
-0.025472
-0.0251296
-0.0248382
-0.0245996
-0.0244016
-0.0303431
-0.0305521
-0.0308092
-0.031114
-0.0314783
-0.038692
-0.0382937
-0.0379675
-0.0376921
-0.0374591
-0.0478979
-0.0480381
-0.0482047
-0.0484048
-0.0486464
-0.143882
-0.143616
-0.143397
-0.143215
-0.143062
-0.138792
-0.139079
-0.139425
-0.139841
-0.140338
-0.137645
-0.137256
-0.136934
-0.136666
-0.136441
-0.134491
-0.134658
-0.134861
-0.135106
-0.135393
-0.133517
-0.1333
-0.133122
-0.132979
-0.132859
-0.131497
-0.131581
-0.13169
-0.13181
-0.131952
-0.132133
-0.133753
-0.135704
-0.138052
-0.140858
-0.14534
-0.147247
-0.140686
-0.137967
-0.135702
-0.133804
-0.132221
-0.018982
-0.023272
-0.0284233
-0.0345931
-0.0419934
-0.053231
0.0241289
0.0455492
0.0587308
0.0697107
0.0788677
0.0865017
0.00683533
0.0260593
0.0153939
0.00202104
-0.0108559
0.00526218
0.00825278
0.00391681
-0.000120619
-0.00250612
-0.00377926
0.0616267
0.101396
0.119381
0.134369
0.146859
0.157268
0.160003
0.149858
0.137685
0.123077
0.105548
0.111119
0.127367
0.140908
0.152191
0.161596
0.162046
0.152606
0.141277
0.12768
0.111368
0.111575
0.127942
0.141582
0.152949
0.162421
0.162735
0.153235
0.141835
0.128159
0.111747
0.11189
0.12834
0.142047
0.153474
0.162996
0.162986
0.153432
0.141967
0.128213
0.111706
0.11157
0.128038
0.141764
0.153203
0.162735
0.162434
0.152929
0.141523
0.127834
0.111409
0.111214
0.127589
0.141234
0.152602
0.162077
0.161648
0.152208
0.140883
0.127292
0.110982
0.10545
0.123018
0.137657
0.149855
0.160021
0.157266
0.146841
0.134332
0.11932
0.101305
0.0613289
0.0673391
0.0712173
0.0713503
0.0714627
0.0715524
0.0716272
0.00843236
0.00841285
0.00838816
0.0083579
0.00832171
0.00162136
0.0022524
0.00889981
0.00893949
0.00897112
0.0089969
0.00901901
-0.0681244
-0.0681268
-0.0681293
-0.0681317
-0.0681354
-0.0733519
-0.0717495
-0.0665438
-0.0665389
-0.0665353
-0.0665315
-0.0665291
-0.156597
-0.156597
-0.156597
-0.156597
-0.156597
-0.160597
-0.1581
-0.154194
-0.154194
-0.154194
-0.154194
-0.154194
-0.151014
-0.151014
-0.151016
-0.151018
-0.151019
-0.154799
-0.150919
-0.147578
-0.147565
-0.147553
-0.147545
-0.147539
-0.249597
-0.2496
-0.249603
-0.249608
-0.249612
-0.25157
-0.248792
-0.247033
-0.24623
-0.245577
-0.245024
-0.244573
-0.245189
-0.245145
-0.245107
-0.245067
-0.245033
-0.245334
-0.245383
-0.245451
-0.245529
-0.24562
-0.246137
-0.245988
-0.245867
-0.245765
-0.245677
-0.246101
-0.246215
-0.246362
-0.24654
-0.246744
-0.247489
-0.2472
-0.246962
-0.246766
-0.246598
-0.247834
-0.247925
-0.248036
-0.248166
-0.248324
-0.354906
-0.354847
-0.354798
-0.354757
-0.354723
-0.354946
-0.355008
-0.355084
-0.355171
-0.355275
-0.355124
-0.355046
-0.354984
-0.354933
-0.354888
-0.354836
-0.354865
-0.354904
-0.354944
-0.354994
-0.354894
-0.354863
-0.354837
-0.354815
-0.354797
-0.35477
-0.354773
-0.354774
-0.354792
-0.354813
-0.35389
-0.35397
-0.354075
-0.354202
-0.354351
-0.354669
-0.354206
-0.35285
-0.352718
-0.352606
-0.352514
-0.35244
-0.243613
-0.244011
-0.244519
-0.245123
-0.24586
-0.249228
-0.249618
-0.245348
-0.244669
-0.244112
-0.243637
-0.243264
-0.132817
-0.134316
-0.13609
-0.138218
-0.140766
-0.148376
-0.0553045
-0.0434465
-0.0365675
-0.0308283
-0.0260397
-0.0220556
-0.0247118
-0.0287147
-0.0335318
-0.0393008
-0.0462203
-0.0591648
0.0169723
0.0391369
0.0504668
0.0598972
0.0677599
0.0743127
0.13238
0.124276
0.114551
0.102886
0.0888941
0.0552166
0.0564759
0.0944956
0.110096
0.1231
0.133938
0.142969
0.151349
0.141813
0.130371
0.116642
0.100174
0.0608966
0.0608968
0.100585
0.117228
0.1311
0.14266
0.152292
0.152366
0.142652
0.130995
0.117006
0.100222
0.0599375
0.0593701
0.10007
0.116921
0.130965
0.14267
0.152424
0.152457
0.142687
0.130963
0.116897
0.100017
0.0591136
0.0590138
0.0999985
0.11689
0.130966
0.142697
0.152472
0.15727
0.14684
0.134326
0.119306
0.101282
0.0612005
0.0671738
0.0710322
0.0711622
0.0712717
0.0713605
0.0714355
0.111637
0.128165
0.141937
0.153414
0.16298
0.162732
0.153187
0.141734
0.127993
0.111504
0.111347
0.127791
0.141495
0.152916
0.162434
0.162077
0.15259
0.141207
0.127547
0.111154
0.110924
0.127252
0.140859
0.152199
0.161651
0.16002
0.149845
0.137636
0.122985
0.105402
0.105401
0.122984
0.137636
0.149846
0.160023
0.16165
0.152195
0.140851
0.127241
0.110909
0.111139
0.127536
0.1412
0.152587
0.162077
0.162435
0.152913
0.141489
0.127781
0.111331
0.11149
0.127984
0.141728
0.153183
0.162732
0.162977
0.153409
0.141929
0.128154
0.111623
0.071447
0.0713708
0.0712797
0.0711716
0.071041
0.0671757
0.00127238
0.00801729
0.00805311
0.0080826
0.00810841
0.00813049
0.00817539
0.00815451
0.00813003
0.00810056
0.00806479
0.00134588
-0.0744856
-0.0692377
-0.069234
-0.0692316
-0.0692291
-0.0692266
-0.0688989
-0.0689013
-0.0689038
-0.0689063
-0.0689087
-0.0741398
-0.162875
-0.158867
-0.158867
-0.158867
-0.158867
-0.158867
-0.158071
-0.158071
-0.158071
-0.158071
-0.158071
-0.162084
-0.25926
-0.256336
-0.256336
-0.256336
-0.256336
-0.256336
-0.255163
-0.255163
-0.255163
-0.255163
-0.255163
-0.258072
-0.25629
-0.253468
-0.253468
-0.253468
-0.253468
-0.253468
-0.251506
-0.251506
-0.251508
-0.251509
-0.251509
-0.254066
-0.356628
-0.355081
-0.355081
-0.35508
-0.35508
-0.35508
-0.354556
-0.354557
-0.354558
-0.354558
-0.35456
-0.355439
-0.45928
-0.459046
-0.459046
-0.459045
-0.459044
-0.459044
-0.460061
-0.460068
-0.460076
-0.460085
-0.460096
-0.460851
-0.460833
-0.460819
-0.460807
-0.460797
-0.460789
-0.4608
-0.460813
-0.460822
-0.460834
-0.460823
-0.460809
-0.4608
-0.460795
-0.460793
-0.460786
-0.460791
-0.460795
-0.4608
-0.460809
-0.460798
-0.460795
-0.460793
-0.460788
-0.460787
-0.563648
-0.563648
-0.563649
-0.56365
-0.563651
-0.563657
-0.563656
-0.563653
-0.563652
-0.563652
-0.563648
-0.56365
-0.563656
-0.563658
-0.563656
-0.563661
-0.563656
-0.563655
-0.563655
-0.563652
-0.563657
-0.563657
-0.56366
-0.563664
-0.563665
-0.562937
-0.562934
-0.562932
-0.56293
-0.562928
-0.561863
-0.561863
-0.561863
-0.561863
-0.561863
-0.561807
-0.562454
-0.562909
-0.562904
-0.562898
-0.5629
-0.562899
-0.561666
-0.561665
-0.561667
-0.561669
-0.561675
-0.561621
-0.458769
-0.458425
-0.45841
-0.45839
-0.458381
-0.458345
-0.457414
-0.457419
-0.457433
-0.457452
-0.457466
-0.458383
-0.354094
-0.352013
-0.35188
-0.351771
-0.35169
-0.351607
-0.351096
-0.351184
-0.351279
-0.351398
-0.351543
-0.354081
-0.250186
-0.245411
-0.244678
-0.244072
-0.243564
-0.243148
-0.133664
-0.135209
-0.137046
-0.139264
-0.141911
-0.150084
-0.151531
-0.142712
-0.139688
-0.137161
-0.135067
-0.133303
-0.0258445
-0.0301898
-0.0354141
-0.0416647
-0.0491679
-0.0625825
0.0114679
0.0332449
0.0447495
0.0543274
0.0623047
0.0689515
0.122557
0.114773
0.105435
0.0942295
0.0807912
0.0483211
0.0492672
0.0855632
0.100386
0.112743
0.123039
0.131624
0.132717
0.123865
0.113241
0.100492
0.0851997
0.0482469
0.0553874
0.0940886
0.11016
0.123556
0.134721
0.144023
0.144212
0.134827
0.123564
0.11005
0.0938363
0.0546119
0.0541864
0.0937562
0.110024
0.123582
0.13488
0.144295
0.144336
0.134908
0.123596
0.110022
0.0937324
0.0539926
0.053913
0.0937202
0.110019
0.123601
0.134922
0.144355
0.144362
0.134925
0.123601
0.110014
0.0937119
0.0538823
0.05898
0.0999938
0.116889
0.130967
0.142701
0.152478
0.157274
0.146843
0.134326
0.119306
0.10128
0.0611742
0.0611688
0.101284
0.119309
0.134327
0.146846
0.157276
0.160024
0.149846
0.137636
0.122984
0.105399
0.110907
0.12724
0.140851
0.152195
0.16165
0.162077
0.152587
0.1412
0.127534
0.111136
0.111327
0.12778
0.141489
0.152913
0.162435
0.162732
0.153183
0.141728
0.127984
0.111489
0.111621
0.128154
0.141929
0.153409
0.162977
0.162977
0.153409
0.14193
0.128155
0.111623
0.11149
0.127986
0.141729
0.153183
0.162732
0.162435
0.152913
0.141489
0.127781
0.111331
0.11114
0.127536
0.1412
0.152587
0.162077
0.161651
0.152195
0.140851
0.127241
0.11091
0.105405
0.122986
0.137638
0.149848
0.160024
0.157277
0.146847
0.134328
0.119309
0.101286
0.0611769
0.0671826
0.0710529
0.071182
0.0712902
0.0713799
0.071455
0.00814477
0.00812513
0.00810039
0.00806989
0.00803545
0.00127202
0.00125987
0.0080137
0.00804816
0.00807869
0.0081047
0.00812553
-0.06936
-0.0693612
-0.0693637
-0.0693674
-0.0693699
-0.0746422
-0.0746096
-0.069347
-0.0693433
-0.0693409
-0.0693383
-0.0693359
-0.159417
-0.159417
-0.159417
-0.159417
-0.159417
-0.163426
-0.163259
-0.159252
-0.159252
-0.159252
-0.159252
-0.159252
-0.257428
-0.257428
-0.257428
-0.257428
-0.257428
-0.260327
-0.259953
-0.257041
-0.257041
-0.257041
-0.257041
-0.257041
-0.358555
-0.358555
-0.358555
-0.358555
-0.358555
-0.360538
-0.359988
-0.357992
-0.357992
-0.357992
-0.357992
-0.357992
-0.357157
-0.357157
-0.357157
-0.357157
-0.357157
-0.359131
-0.357959
-0.356098
-0.356098
-0.356098
-0.356098
-0.356098
-0.45917
-0.45917
-0.45917
-0.45917
-0.45917
-0.460285
-0.459617
-0.458793
-0.458793
-0.458793
-0.458793
-0.458793
-0.561383
-0.561383
-0.561383
-0.561383
-0.561383
-0.561751
-0.662702
-0.662578
-0.662578
-0.662578
-0.662578
-0.662578
-0.66301
-0.66301
-0.66301
-0.663011
-0.663011
-0.662865
-0.663463
-0.663851
-0.663851
-0.663849
-0.66385
-0.663849
-0.664396
-0.664395
-0.664394
-0.664393
-0.664393
-0.664395
-0.664395
-0.664396
-0.664396
-0.664397
-0.664399
-0.664398
-0.664397
-0.664397
-0.664397
-0.664398
-0.664399
-0.664399
-0.6644
-0.664398
-0.6644
-0.664397
-0.664397
-0.664394
-0.664392
-0.663848
-0.663848
-0.663847
-0.663847
-0.663847
-0.763399
-0.763398
-0.763398
-0.763398
-0.763397
-0.763741
-0.763739
-0.763737
-0.763737
-0.763738
-0.763736
-0.763735
-0.763735
-0.763734
-0.763734
-0.763739
-0.763739
-0.763739
-0.76374
-0.763741
-0.763733
-0.763732
-0.763731
-0.763731
-0.763731
-0.763738
-0.763738
-0.763739
-0.76374
-0.763741
-0.763401
-0.763394
-0.763399
-0.763397
-0.763399
-0.763143
-0.76269
-0.762834
-0.76283
-0.762835
-0.762828
-0.762835
-0.662949
-0.662946
-0.662944
-0.662951
-0.662946
-0.66279
-0.66241
-0.662312
-0.66231
-0.662312
-0.662308
-0.662312
-0.560819
-0.560825
-0.560826
-0.560831
-0.560829
-0.561179
-0.560871
-0.560273
-0.560278
-0.560274
-0.560268
-0.560266
-0.456797
-0.456808
-0.456828
-0.456841
-0.456861
-0.458131
-0.457684
-0.456152
-0.456124
-0.456099
-0.456087
-0.456061
-0.350279
-0.35038
-0.350514
-0.350665
-0.350848
-0.35378
-0.250386
-0.245051
-0.244186
-0.243463
-0.242867
-0.242366
-0.240392
-0.241083
-0.241895
-0.242884
-0.244062
-0.250063
-0.15211
-0.142477
-0.138718
-0.135588
-0.132976
-0.130795
-0.0235151
-0.0285297
-0.0345565
-0.0417668
-0.0504193
-0.064686
0.00662363
0.0279744
0.0397825
0.0496177
0.0578059
0.0646247
0.110719
0.103583
0.095018
0.0847463
0.072426
0.0415593
0.0420197
0.0756521
0.0889427
0.10002
0.109254
0.116951
0.117884
0.109946
0.100424
0.0889978
0.0752882
0.0410991
0.0405353
0.0751426
0.0889718
0.100498
0.110101
0.118107
0.132952
0.124023
0.113305
0.100444
0.0850154
0.0475875
0.0472484
0.0849756
0.100451
0.113348
0.124096
0.133053
0.133097
0.12413
0.11337
0.100458
0.0849635
0.0470959
0.0470306
0.0849509
0.100454
0.113374
0.124142
0.133115
0.133117
0.124143
0.113371
0.100448
0.0849405
0.0470014
0.0469894
0.0849356
0.100444
0.113369
0.124142
0.133117
0.144363
0.134925
0.123601
0.110013
0.0937085
0.0538706
0.0589721
0.0999937
0.116889
0.130967
0.142703
0.15248
0.15248
0.142703
0.130968
0.116889
0.099995
0.0589741
0.0589757
0.0999952
0.116891
0.13097
0.142704
0.15248
0.157277
0.14685
0.134332
0.119311
0.101289
0.0611812
0.067188
0.0710602
0.0711908
0.071299
0.071389
0.0714637
0.111624
0.128155
0.141931
0.153409
0.162977
0.162732
0.153185
0.141731
0.127986
0.111492
0.111335
0.127782
0.14149
0.152915
0.162435
0.162077
0.152589
0.141201
0.127537
0.111143
0.110913
0.127243
0.140853
0.152196
0.161651
0.160024
0.14985
0.137639
0.122988
0.105408
0.10541
0.12299
0.137639
0.14985
0.160025
0.161651
0.152197
0.140853
0.127243
0.110912
0.111142
0.127537
0.141201
0.152589
0.162078
0.162436
0.152915
0.141491
0.127783
0.111335
0.111492
0.127986
0.141731
0.153185
0.162732
0.162978
0.153409
0.141931
0.128155
0.111624
0.0714683
0.0713935
0.0713036
0.0711939
0.0710638
0.0671914
0.0012891
0.0080556
0.00809153
0.00812091
0.00814684
0.00816761
0.0081591
0.00813843
0.00811232
0.00808321
0.00804836
0.00128176
-0.0746388
-0.0693555
-0.0693531
-0.0693505
-0.0693481
-0.0693456
-0.0693562
-0.0693575
-0.0693598
-0.0693636
-0.0693662
-0.0746442
-0.163513
-0.159502
-0.159502
-0.159502
-0.159502
-0.159502
-0.159481
-0.159481
-0.159481
-0.159481
-0.159481
-0.163491
-0.260606
-0.257727
-0.257726
-0.257726
-0.257727
-0.257726
-0.257629
-0.25763
-0.257629
-0.257629
-0.25763
-0.260517
-0.361049
-0.359102
-0.359102
-0.359102
-0.359102
-0.359102
-0.3589
-0.358901
-0.3589
-0.358901
-0.358901
-0.360865
-0.462243
-0.461023
-0.461023
-0.461023
-0.461023
-0.461023
-0.460734
-0.460734
-0.460734
-0.460734
-0.460734
-0.461975
-0.461566
-0.460313
-0.460313
-0.460313
-0.460313
-0.460313
-0.459762
-0.459762
-0.459762
-0.459762
-0.459762
-0.460991
-0.562435
-0.561759
-0.561759
-0.561759
-0.561759
-0.561759
-0.561444
-0.561444
-0.561444
-0.561444
-0.561444
-0.562033
-0.66281
-0.662544
-0.662544
-0.662544
-0.662544
-0.662544
-0.762569
-0.762569
-0.762569
-0.762569
-0.762569
-0.762663
-0.762603
-0.762588
-0.762588
-0.762588
-0.762588
-0.762588
-0.762873
-0.762873
-0.762873
-0.762873
-0.762873
-0.762736
-0.86181
-0.861909
-0.861909
-0.861909
-0.861909
-0.861909
-0.862186
-0.862186
-0.862186
-0.862186
-0.862187
-0.862365
-0.862365
-0.862364
-0.862364
-0.862364
-0.862363
-0.862363
-0.862363
-0.862364
-0.862364
-0.862358
-0.862357
-0.862356
-0.862356
-0.862356
-0.862362
-0.862362
-0.862362
-0.862363
-0.862364
-0.862364
-0.862363
-0.862362
-0.862362
-0.862362
-0.96064
-0.960641
-0.960641
-0.960641
-0.960642
-0.960642
-0.960642
-0.960641
-0.960641
-0.960641
-0.960641
-0.960641
-0.960642
-0.960642
-0.960643
-0.960643
-0.960643
-0.960642
-0.960642
-0.960642
-0.960643
-0.960643
-0.960644
-0.960644
-0.960645
-0.960574
-0.960574
-0.960574
-0.960574
-0.960574
-0.960472
-0.960472
-0.960472
-0.960473
-0.960473
-0.960412
-0.960496
-0.960555
-0.960556
-0.960556
-0.96056
-0.960552
-0.960399
-0.960407
-0.960404
-0.960404
-0.960402
-0.960358
-0.861766
-0.861863
-0.86186
-0.86186
-0.861859
-0.861862
-0.861621
-0.861613
-0.861613
-0.861619
-0.861616
-0.861593
-0.762415
-0.762415
-0.762412
-0.762418
-0.762414
-0.762415
-0.762125
-0.762125
-0.762121
-0.762124
-0.762123
-0.762213
-0.66214
-0.661885
-0.661883
-0.661886
-0.661886
-0.661883
-0.66145
-0.661458
-0.661453
-0.661455
-0.661452
-0.661807
-0.560454
-0.55969
-0.559688
-0.559687
-0.559674
-0.559686
-0.558802
-0.558798
-0.558807
-0.558813
-0.558822
-0.559742
-0.45683
-0.455027
-0.454984
-0.454937
-0.454912
-0.454873
-0.348747
-0.348894
-0.349089
-0.349307
-0.349579
-0.352963
-0.351722
-0.347761
-0.347317
-0.346951
-0.346638
-0.346387
-0.237389
-0.238378
-0.239554
-0.24098
-0.242679
-0.249522
-0.152616
-0.141869
-0.136919
-0.1328
-0.129352
-0.126483
-0.0136253
-0.0195812
-0.026719
-0.0352849
-0.0455516
-0.063669
0.00452749
0.0278625
0.0399166
0.0499637
0.0583323
0.0653071
0.0982638
0.0921773
0.0848717
0.076107
0.0655967
0.0375896
0.0375602
0.0666824
0.0775584
0.0866272
0.0941865
0.100484
0.100849
0.0944127
0.0866872
0.0774173
0.0662952
0.0367504
0.0362503
0.0661589
0.0773669
0.086708
0.0944932
0.100981
0.101039
0.0945327
0.0867289
0.077364
0.0661276
0.0360042
0.0402498
0.0751104
0.0889795
0.10054
0.11017
0.118198
0.118233
0.110198
0.100556
0.0889826
0.0750961
0.040122
0.0400626
0.0750785
0.0889747
0.100555
0.110204
0.118244
0.118246
0.110202
0.10055
0.0889671
0.0750675
0.0400346
0.0400234
0.0750626
0.0889614
0.100544
0.110199
0.118244
0.11824
0.110196
0.100539
0.0889566
0.0750577
0.0400158
0.046982
0.0849322
0.100442
0.113366
0.12414
0.133117
0.144364
0.134925
0.123601
0.110013
0.0937073
0.0538669
0.053865
0.0937061
0.110013
0.123602
0.134926
0.144364
0.144364
0.134926
0.123602
0.110013
0.0937063
0.0538661
0.0589778
0.0999968
0.116893
0.130973
0.142706
0.15248
0.157277
0.146851
0.134335
0.119315
0.101292
0.0611845
0.0611891
0.101294
0.119317
0.134335
0.146851
0.157277
0.160025
0.14985
0.137639
0.12299
0.105411
0.110911
0.127243
0.140852
0.152196
0.161651
0.162078
0.152588
0.1412
0.127538
0.111141
0.111335
0.127783
0.141491
0.152915
0.162436
0.162733
0.153185
0.141731
0.127986
0.111492
0.111625
0.128156
0.141931
0.153409
0.162978
0.162978
0.15341
0.141931
0.128156
0.111625
0.111492
0.127987
0.141733
0.153187
0.162733
0.162436
0.152917
0.141492
0.127783
0.111335
0.111142
0.127538
0.141201
0.152588
0.162078
0.161651
0.152196
0.140852
0.127243
0.110911
0.105413
0.12299
0.13764
0.149851
0.160025
0.157278
0.146852
0.134335
0.119317
0.101296
0.061191
0.0671974
0.0710671
0.0711968
0.0713078
0.0713965
0.0714726
0.00817404
0.00815311
0.00812841
0.00809781
0.00806337
0.00129745
0.0012945
0.00806024
0.00809576
0.00812657
0.00815114
0.00817086
-0.0693324
-0.0693336
-0.0693361
-0.0693398
-0.0693436
-0.0746258
-0.0746322
-0.0693493
-0.0693456
-0.0693431
-0.0693407
-0.0693382
-0.159502
-0.159502
-0.159502
-0.159502
-0.159502
-0.163516
-0.163517
-0.159505
-0.159505
-0.159505
-0.159505
-0.159505
-0.257785
-0.257785
-0.257785
-0.257785
-0.257785
-0.26066
-0.260645
-0.257768
-0.257768
-0.257768
-0.257768
-0.257768
-0.359277
-0.359277
-0.359277
-0.359277
-0.359277
-0.361206
-0.361154
-0.35922
-0.35922
-0.35922
-0.35922
-0.35922
-0.461331
-0.461331
-0.461331
-0.461331
-0.461331
-0.46252
-0.462415
-0.461212
-0.461212
-0.461212
-0.461212
-0.461212
-0.562854
-0.562854
-0.562854
-0.562854
-0.562854
-0.563503
-0.563341
-0.562675
-0.562675
-0.562675
-0.562675
-0.562675
-0.562431
-0.562431
-0.562431
-0.562431
-0.562431
-0.563117
-0.562814
-0.562117
-0.562117
-0.562118
-0.562118
-0.562117
-0.662984
-0.662984
-0.662984
-0.662984
-0.662984
-0.663315
-0.663048
-0.662728
-0.662727
-0.662727
-0.662728
-0.662727
-0.762719
-0.762719
-0.762719
-0.762719
-0.762719
-0.762842
-0.862035
-0.862007
-0.862007
-0.862007
-0.862007
-0.862007
-0.861814
-0.861814
-0.861814
-0.861814
-0.861814
-0.861834
-0.861751
-0.861772
-0.861772
-0.861772
-0.861772
-0.861772
-0.960456
-0.960456
-0.960456
-0.960456
-0.960456
-0.960434
-1.05886
-1.05888
-1.05888
-1.05888
-1.05888
-1.05888
-1.05879
-1.05879
-1.05879
-1.05879
-1.05879
-1.05877
-1.05875
-1.05876
-1.05876
-1.05876
-1.05876
-1.05876
-1.05879
-1.05879
-1.05879
-1.05879
-1.05879
-1.05879
-1.05879
-1.05879
-1.05879
-1.05879
-1.0588
-1.0588
-1.0588
-1.0588
-1.0588
-1.05879
-1.05879
-1.05879
-1.05879
-1.05879
-1.05879
-1.05879
-1.05879
-1.05879
-1.05879
-1.05879
-1.05879
-1.05879
-1.05879
-1.05879
-1.15693
-1.15693
-1.15693
-1.15693
-1.15693
-1.1569
-1.1569
-1.1569
-1.1569
-1.1569
-1.1569
-1.1569
-1.1569
-1.1569
-1.1569
-1.1569
-1.1569
-1.1569
-1.1569
-1.1569
-1.1569
-1.1569
-1.1569
-1.1569
-1.1569
-1.1569
-1.1569
-1.1569
-1.1569
-1.1569
-1.1569
-1.15689
-1.1569
-1.1569
-1.1569
-1.15692
-1.15691
-1.15689
-1.15688
-1.15688
-1.15688
-1.15689
-1.0587
-1.0587
-1.0587
-1.0587
-1.0587
-1.05869
-1.05864
-1.05865
-1.05864
-1.05865
-1.05864
-1.05864
-0.960275
-0.960279
-0.960275
-0.960275
-0.960275
-0.96026
-0.960179
-0.960181
-0.960179
-0.960182
-0.960183
-0.960179
-0.861438
-0.861434
-0.861434
-0.861436
-0.861436
-0.861456
-0.861301
-0.861256
-0.861255
-0.861252
-0.861259
-0.861252
-0.761839
-0.76183
-0.761833
-0.761832
-0.761834
-0.761978
-0.761611
-0.76142
-0.761418
-0.761421
-0.761413
-0.761422
-0.660828
-0.660833
-0.660834
-0.660831
-0.660833
-0.661278
-0.660444
-0.65988
-0.659877
-0.659878
-0.659873
-0.659876
-0.557447
-0.557454
-0.557467
-0.557475
-0.557494
-0.558621
-0.455489
-0.453324
-0.45324
-0.453165
-0.453111
-0.453052
-0.450503
-0.450594
-0.450704
-0.450842
-0.451005
-0.453675
-0.350184
-0.345418
-0.344709
-0.344112
-0.343616
-0.343204
-0.233802
-0.235225
-0.236943
-0.238997
-0.241463
-0.249341
-0.155027
-0.143008
-0.136667
-0.131379
-0.126968
-0.12329
-0.014329
-0.0207882
-0.0285226
-0.0378223
-0.0489739
-0.0699064
-0.0283805
0.00340372
0.0177322
0.0296782
0.0396387
0.0479372
0.0737649
0.0663749
0.0575246
0.0469219
0.0342277
0.00794089
0.00775805
0.0361482
0.049561
0.0607652
0.0701135
0.0779176
0.0779256
0.0699226
0.060326
0.0488076
0.0349938
0.00640004
0.0056962
0.034647
0.0485753
0.0601805
0.0698498
0.07791
0.0779014
0.0698294
0.0601373
0.0485013
0.0345367
0.005369
0.00523049
0.0344956
0.0484685
0.0601112
0.0698089
0.0778859
0.101053
0.0945421
0.0867326
0.0773596
0.0661114
0.0358956
0.0358412
0.0660928
0.0773479
0.0867249
0.0945391
0.10105
0.101046
0.0945337
0.0867148
0.0773339
0.0660771
0.0358143
0.0358016
0.0660684
0.077325
0.0867069
0.0945265
0.101041
0.101036
0.0945215
0.0867019
0.0773201
0.0660635
0.0357942
0.0357894
0.0660617
0.0773186
0.0866998
0.094519
0.101034
0.118237
0.110194
0.100538
0.0889568
0.0750555
0.0400111
0.0469774
0.0849301
0.100442
0.113367
0.12414
0.133117
0.133117
0.124141
0.113367
0.100443
0.0849304
0.0469784
0.0469788
0.0849308
0.100443
0.113367
0.124141
0.133117
0.144364
0.134926
0.123602
0.110014
0.0937067
0.0538664
0.0589796
0.0999984
0.116895
0.130973
0.142706
0.152481
0.152481
0.142706
0.130974
0.116895
0.0999987
0.0589803
0.0589804
0.0999988
0.116895
0.130974
0.142706
0.152481
0.157278
0.146852
0.134336
0.119317
0.101296
0.0611911
0.0671974
0.0710672
0.0711969
0.0713079
0.0713966
0.0714727
0.111625
0.128156
0.141931
0.15341
0.162978
0.162733
0.153187
0.141733
0.127987
0.111492
0.111335
0.127783
0.141492
0.152917
0.162436
0.162078
0.152588
0.141201
0.127538
0.111142
0.110911
0.127244
0.140852
0.152196
0.161651
0.160025
0.149851
0.13764
0.12299
0.105413
0.105413
0.12299
0.13764
0.149851
0.160025
0.161651
0.152196
0.140852
0.127244
0.110911
0.111142
0.127538
0.141201
0.152588
0.162078
0.162436
0.152917
0.141492
0.127783
0.111335
0.111492
0.127987
0.141733
0.153187
0.162733
0.162978
0.15341
0.141931
0.128156
0.111625
0.0714727
0.0713965
0.0713078
0.0711969
0.0710672
0.0671973
0.00129766
0.00806426
0.00809911
0.00812835
0.00815304
0.00817513
0.00817525
0.00815315
0.00812846
0.00809923
0.0080644
0.00129783
-0.074623
-0.0693398
-0.0693374
-0.0693349
-0.0693324
-0.0693299
-0.0693318
-0.069333
-0.0693356
-0.0693392
-0.0693418
-0.0746234
-0.163512
-0.159499
-0.159499
-0.159499
-0.159499
-0.159499
-0.1595
-0.1595
-0.1595
-0.1595
-0.1595
-0.163513
-0.260668
-0.257796
-0.257795
-0.257796
-0.257795
-0.257795
-0.257794
-0.257794
-0.257794
-0.257794
-0.257794
-0.260667
-0.361241
-0.359318
-0.359318
-0.359318
-0.359318
-0.359318
-0.359305
-0.359305
-0.359305
-0.359305
-0.359305
-0.361231
-0.462615
-0.461436
-0.461436
-0.461436
-0.461436
-0.461436
-0.461401
-0.461401
-0.461401
-0.461401
-0.461401
-0.462583
-0.563693
-0.563064
-0.563064
-0.563064
-0.563064
-0.563064
-0.562983
-0.562983
-0.562983
-0.562983
-0.562983
-0.563618
-0.664124
-0.663857
-0.663857
-0.663857
-0.663857
-0.663857
-0.663689
-0.663689
-0.663689
-0.663689
-0.663689
-0.663971
-0.663783
-0.663482
-0.663482
-0.663482
-0.663482
-0.663482
-0.663243
-0.663243
-0.663243
-0.663243
-0.663243
-0.663563
-0.763354
-0.763246
-0.763246
-0.763246
-0.763246
-0.763246
-0.76296
-0.76296
-0.76296
-0.76296
-0.76296
-0.763083
-0.862337
-0.862325
-0.862325
-0.862325
-0.862325
-0.862325
-0.961385
-0.961385
-0.961385
-0.961385
-0.961385
-0.961328
-0.96087
-0.960889
-0.960889
-0.960889
-0.960889
-0.960889
-0.960588
-0.960588
-0.960588
-0.960588
-0.960588
-0.960579
-1.0591
-1.05912
-1.05912
-1.05912
-1.05912
-1.05912
-1.15754
-1.15754
-1.15754
-1.15754
-1.15754
-1.15751
-1.15717
-1.15718
-1.15718
-1.15718
-1.15718
-1.15718
-1.157
-1.157
-1.157
-1.157
-1.157
-1.157
-1.25518
-1.25517
-1.25517
-1.25517
-1.25517
-1.25517
-1.25505
-1.25505
-1.25505
-1.25505
-1.25505
-1.25501
-1.25501
-1.25501
-1.255
-1.255
-1.25501
-1.25501
-1.25501
-1.25501
-1.25501
-1.255
-1.255
-1.255
-1.255
-1.255
-1.25501
-1.25501
-1.25501
-1.25501
-1.25501
-1.255
-1.255
-1.255
-1.255
-1.255
-1.3531
-1.35311
-1.35311
-1.35311
-1.35311
-1.35311
-1.35311
-1.35311
-1.35311
-1.35311
-1.35311
-1.35311
-1.35311
-1.35311
-1.35311
-1.3531
-1.3531
-1.3531
-1.3531
-1.3531
-1.35311
-1.35311
-1.35311
-1.35311
-1.35311
-1.35316
-1.35316
-1.35316
-1.35316
-1.35316
-1.35331
-1.35331
-1.35331
-1.35331
-1.35331
-1.35333
-1.35318
-1.35313
-1.35312
-1.35313
-1.35312
-1.35312
-1.35317
-1.35317
-1.35317
-1.35317
-1.35317
-1.35322
-1.25507
-1.25503
-1.25503
-1.25503
-1.25504
-1.25503
-1.25507
-1.25507
-1.25506
-1.25507
-1.25507
-1.25509
-1.1569
-1.15688
-1.15688
-1.15688
-1.15688
-1.15688
-1.15689
-1.15689
-1.15689
-1.1569
-1.15689
-1.1569
-1.05861
-1.05861
-1.05861
-1.05861
-1.05861
-1.05861
-1.05858
-1.05858
-1.05858
-1.05859
-1.05858
-1.05858
-0.960089
-0.960086
-0.960082
-0.960088
-0.960082
-0.960082
-0.95994
-0.959944
-0.959943
-0.95994
-0.959944
-0.959956
-0.861067
-0.861
-0.861004
-0.860996
-0.861003
-0.860996
-0.860591
-0.860591
-0.86059
-0.860592
-0.860593
-0.860693
-0.761032
-0.760774
-0.760778
-0.760772
-0.760775
-0.760772
-0.759797
-0.759812
-0.759797
-0.759808
-0.759802
-0.760162
-0.65922
-0.658482
-0.658479
-0.658476
-0.658463
-0.658473
-0.555503
-0.555525
-0.555542
-0.555563
-0.5556
-0.55703
-0.554923
-0.55305
-0.55298
-0.552927
-0.552889
-0.55284
-0.447101
-0.447278
-0.447494
-0.447754
-0.448063
-0.451454
-0.348629
-0.3428
-0.341616
-0.34062
-0.339795
-0.339112
-0.229472
-0.231532
-0.234021
-0.23699
-0.24056
-0.249692
-0.159314
-0.145806
-0.137783
-0.131083
-0.125497
-0.120841
-0.0279136
-0.0344629
-0.0423183
-0.051761
-0.0630979
-0.0841966
-0.0467784
-0.0153527
-0.00286529
0.00754596
0.0162265
0.0234618
0.0305402
0.0226908
0.0132776
0.00198471
-0.0115651
-0.0463367
-0.0298916
0.0059826
0.0218559
0.0350844
0.046114
0.0553044
0.0554252
0.0459599
0.0345963
0.0209657
0.00460954
-0.0316481
-0.0325385
0.00411676
0.0205989
0.0343366
0.0457867
0.0553273
0.0552747
0.0457111
0.0342425
0.0204777
0.00395912
-0.0329442
-0.0331249
0.00388761
0.0204172
0.0341893
0.0456647
0.0552331
0.055201
0.0456319
0.0341521
0.020377
0.00384319
-0.0332063
0.00516695
0.0344653
0.0484407
0.0600888
0.0697888
0.0778709
0.0778583
0.0697738
0.0600718
0.0484187
0.0344401
0.00513056
0.00511023
0.0344255
0.0484057
0.060059
0.0697614
0.0778482
0.0778413
0.0697564
0.0600522
0.0484007
0.0344189
0.00510169
0.00509752
0.0344133
0.0483983
0.0600466
0.0697541
0.0778386
0.0778384
0.0697528
0.0600436
0.0483964
0.0344113
0.00509327
0.0357865
0.0660606
0.0773189
0.0866997
0.0945172
0.101034
0.118238
0.110194
0.100539
0.0889571
0.0750558
0.0400107
0.0400098
0.0750562
0.0889575
0.100539
0.110195
0.118238
0.118239
0.110195
0.100539
0.0889579
0.0750566
0.0400102
0.0469792
0.0849311
0.100443
0.113368
0.124141
0.133118
0.144365
0.134927
0.123603
0.110014
0.093707
0.053867
0.0538671
0.0937072
0.110014
0.123603
0.134927
0.144365
0.144365
0.134927
0.123603
0.110014
0.0937071
0.053867
0.0589803
0.0999987
0.116895
0.130974
0.142706
0.152481
0.157278
0.146852
0.134336
0.119317
0.101296
0.061191