/*--------------------------------*- C++ -*----------------------------------*\
| =========                 |                                                 |
| \\      /  F ield         | OpenFOAM: The Open Source CFD Toolbox           |
|  \\    /   O peration     | Version:  2212                                  |
|   \\  /    A nd           | Website:  www.openfoam.com                      |
|    \\/     M anipulation  |                                                 |
\*---------------------------------------------------------------------------*/
FoamFile
{
    version     2.0;
    format      ascii;
    arch        "LSB;label=32;scalar=64";
    class       volScalarField;
    location    "300";
    object      T;
}
// * * * * * * * * * * * * * * * * * * * * * * * * * * * * * * * * * * * * * //

dimensions      [0 0 0 1 0 0 0];

internalField   nonuniform List<scalar> 
247120
(
307.032
306.878
306.675
306.468
306.247
306.042
305.95
305.608
305.661
305.816
305.992
306.167
306.478
306.805
306.419
306.223
306.042
305.871
305.803
305.903
305.965
306.131
306.299
306.559
306.54
305.951
305.752
305.696
305.667
305.658
305.678
305.704
305.98
306.637
306.699
305.995
305.669
305.67
305.648
305.664
305.675
305.653
306.016
306.734
306.777
306.038
305.67
305.708
305.692
304.924
304.914
304.932
304.964
305.009
305.056
305.019
304.992
304.975
304.982
305.197
305.183
305.191
305.204
305.214
305.54
305.563
305.567
305.567
305.583
306.192
306.159
306.145
306.113
306.042
307.489
307.696
307.828
307.9
307.962
308.567
308.47
308.349
308.184
307.998
307.804
307.647
307.855
308.038
308.197
308.313
308.403
308.273
308.183
308.075
307.926
307.753
307.548
307.332
307.163
306.978
306.743
306.443
306.275
306.358
306.44
306.524
306.604
306.686
306.942
306.84
306.747
306.649
306.545
306.845
306.94
307.028
307.11
307.196
307.394
307.306
307.23
307.146
307.056
307.282
307.39
307.484
307.561
307.64
307.934
307.847
307.757
307.642
307.504
307.445
307.621
307.743
307.82
307.891
307.183
307.165
305.973
305.538
305.335
305.228
305.193
305.218
305.254
305.354
305.471
305.677
306.704
307.147
305.74
305.251
304.955
304.798
304.753
305.11
305.18
305.398
305.773
306.311
306.508
305.908
305.475
305.218
305.128
305.109
305.204
305.478
305.944
306.587
306.621
305.945
305.46
305.175
305.071
305.054
305.157
305.446
305.939
306.63
306.663
305.957
305.455
305.163
305.056
305.216
305.332
305.654
306.201
306.951
306.915
306.178
305.641
305.322
305.205
305.239
305.35
305.663
306.188
306.902
306.871
306.192
305.688
305.386
305.276
305.317
305.414
305.695
306.161
306.783
306.581
306.018
305.612
305.365
305.28
304.751
304.817
305.04
305.439
306.043
307.584
307.818
308.128
308.344
308.49
308.57
308.636
309.069
308.962
308.819
308.641
308.461
308.272
308.015
308.261
308.441
308.607
308.732
308.824
308.881
308.764
308.605
308.422
308.263
308.112
307.916
308.065
308.225
308.4
308.547
308.653
308.496
308.393
308.262
308.102
307.95
307.796
307.608
307.425
307.238
307.021
306.746
306.569
306.661
306.76
306.862
306.96
307.058
307.306
307.191
307.083
306.969
306.851
307.142
307.253
307.358
307.457
307.556
307.777
307.677
307.578
307.471
307.358
307.577
307.693
307.804
307.901
307.99
308.213
308.121
308.015
307.891
307.762
307.816
307.946
308.081
308.197
308.292
308.099
308.003
307.894
307.773
307.651
307.492
307.608
307.72
307.823
307.917
307.711
307.605
307.496
307.381
307.261
306.992
307.113
307.23
307.339
307.442
307.191
307.086
306.981
306.871
306.764
306.669
306.839
307.133
307.353
307.52
307.65
307.486
307.316
307.11
306.877
306.624
306.501
306.417
306.54
306.797
307.04
307.249
307.432
307.086
306.964
306.743
306.498
306.247
306.135
307.168
307.236
307.399
307.332
307.276
307.221
307.41
307.532
307.805
308.125
308.442
308.028
306.444
305.785
305.326
305.059
304.975
305.509
305.598
305.865
306.3
306.885
307.059
306.41
305.913
305.608
305.497
305.456
305.572
305.899
306.436
307.138
307.174
306.428
305.863
305.524
305.398
305.369
305.493
305.839
306.417
307.186
307.224
306.437
305.848
305.498
305.368
305.538
305.672
306.046
306.668
307.481
307.44
306.642
306.031
305.663
305.527
305.572
305.702
306.061
306.655
307.424
307.393
306.666
306.102
305.757
305.63
305.702
305.814
306.133
306.652
307.317
307.201
306.594
306.132
305.842
305.742
305.329
305.421
305.715
306.204
306.876
308.428
308.469
308.663
308.84
308.976
309.053
309.117
309.475
309.354
309.194
309.018
308.871
308.764
308.507
308.654
308.818
308.998
309.152
309.261
309.262
309.124
308.934
308.735
308.586
308.486
308.286
308.404
308.561
308.756
308.935
309.058
309.006
308.862
308.654
308.433
308.265
308.149
307.99
308.118
308.286
308.494
308.682
308.809
308.641
308.522
308.354
308.163
308.004
307.869
307.763
307.896
308.047
308.221
308.369
308.475
308.448
308.329
308.163
307.968
307.8
307.657
307.589
307.48
307.342
307.141
306.852
306.68
306.809
306.915
307.025
307.128
307.229
307.49
307.372
307.255
307.13
307.001
307.302
307.424
307.542
307.65
307.752
307.953
307.848
307.738
307.616
307.493
307.649
307.776
307.905
308.018
308.113
308.258
308.158
308.03
307.883
307.742
307.682
307.836
307.996
308.132
308.233
308.07
307.971
307.851
307.713
307.576
307.462
307.586
307.708
307.817
307.912
307.722
307.617
307.506
307.385
307.26
306.998
307.124
307.245
307.356
307.46
307.213
307.107
307.001
306.889
306.779
306.666
306.823
307.106
307.295
307.414
307.493
307.336
307.216
307.054
306.845
306.601
306.484
306.505
306.619
306.873
307.097
307.283
307.421
307.274
307.071
306.86
306.624
306.394
306.296
306.319
306.407
306.632
306.869
307.094
307.324
307.266
307.015
306.798
306.561
306.337
306.237
306.024
306.107
306.316
306.555
306.784
307.094
306.645
306.377
306.172
305.959
305.775
305.702
305.328
305.383
305.543
305.74
305.936
306.278
306.04
305.45
305.238
305.056
304.918
304.872
305.079
305.122
305.243
305.389
305.573
306.3
306.71
305.304
304.927
304.711
304.581
304.54
304.226
304.281
304.48
304.859
305.482
307.315
307.872
305.922
305.199
304.728
304.471
304.396
304.788
304.878
305.177
305.702
306.457
308.359
308.787
307.012
306.239
305.669
305.33
305.224
305.71
305.813
306.131
306.644
307.319
308.793
308.765
308.909
309.063
309.189
309.262
309.324
307.733
306.896
306.241
305.846
305.7
305.7
305.84
306.229
306.871
307.691
307.677
306.885
306.261
305.881
305.741
305.82
305.949
306.311
306.901
307.643
307.584
306.899
306.355
306.018
305.897
306.025
306.128
306.43
306.907
307.515
307.847
307.222
306.719
306.395
306.282
306.109
306.23
306.58
307.145
307.846
307.895
307.131
306.517
306.137
305.997
305.922
306.065
306.464
307.114
307.924
307.943
307.102
306.43
306.019
305.867
305.875
306.026
306.44
307.122
307.977
309.52
309.46
309.395
309.279
309.147
309.045
309.183
309.244
309.372
309.546
309.715
309.839
309.647
309.526
309.36
309.185
309.049
308.966
308.804
308.889
309.041
309.254
309.467
309.615
309.43
309.288
309.085
308.88
308.732
308.639
308.403
308.521
308.707
308.957
309.198
309.356
309.174
309.023
308.798
308.563
308.387
308.27
308.044
308.202
308.424
308.703
308.958
309.118
308.934
308.784
308.549
308.29
308.083
307.931
307.829
307.976
308.171
308.411
308.624
308.761
308.599
308.472
308.283
308.066
307.885
307.737
307.587
307.762
307.973
308.219
308.426
308.557
308.388
308.269
308.086
307.867
307.673
307.502
307.374
307.578
307.797
308.04
308.235
308.357
308.186
308.081
307.937
307.764
307.595
307.538
307.683
307.828
307.951
308.047
307.896
307.796
307.682
307.554
307.422
307.251
307.377
307.497
307.606
307.704
307.448
307.338
307.223
307.098
306.968
306.783
306.891
307
307.101
307.198
307.18
307.072
306.969
306.858
306.748
306.96
307.089
307.212
307.323
307.426
307.693
307.586
307.472
307.346
307.214
307.404
307.539
307.671
307.786
307.884
308.039
307.934
307.804
307.649
307.492
307.55
307.733
307.917
308.067
308.173
308.332
308.202
307.995
307.732
307.487
307.243
307.31
307.264
307.185
307.026
306.767
306.614
306.442
306.543
306.77
306.959
307.087
307.14
307.236
307.155
307.014
306.815
306.581
306.464
306.228
306.312
306.525
306.743
306.924
307.08
307.179
306.995
306.801
306.577
306.358
306.272
306.015
306.094
306.307
306.547
306.767
307.03
307.11
306.833
306.602
306.355
306.136
306.052
306.075
306.164
306.381
306.626
306.863
307.157
306.987
306.628
306.376
306.117
305.895
305.805
305.758
305.847
306.061
306.31
306.552
306.905
306.442
306.115
305.902
305.682
305.498
305.429
305.038
305.091
305.255
305.476
305.705
306.111
305.846
305.276
305.035
304.832
304.693
304.65
304.269
304.309
304.441
304.663
304.994
306.016
306.345
305.129
304.792
304.576
304.444
304.402
304.09
304.142
304.323
304.67
305.27
307.154
307.803
305.71
304.95
304.466
304.206
304.13
304.551
304.645
304.959
305.513
306.319
308.353
308.825
306.952
306.132
305.529
305.171
305.059
305.679
305.801
306.187
306.806
307.594
309.229
309.163
307.578
306.82
306.226
305.857
305.738
306.112
306.224
306.566
307.102
307.776
309.145
309.473
308.237
307.568
307.01
306.642
306.515
306.573
306.686
307.023
307.544
308.17
308.116
307.39
306.801
306.434
306.303
306.194
306.333
306.726
307.362
308.142
308.173
307.344
306.669
306.251
306.096
306.05
306.206
306.636
307.335
308.191
308.231
307.359
306.647
306.21
306.047
306.239
306.404
306.86
307.597
308.479
308.436
307.565
306.842
306.394
306.227
306.287
306.442
306.874
307.571
308.413
308.389
307.589
306.931
306.524
306.376
306.519
306.646
307.023
307.633
308.381
308.517
307.875
307.324
306.961
306.834
306.971
307.096
307.471
308.032
308.679
309.759
309.604
309.636
309.728
309.823
309.867
309.905
310.207
310.075
309.906
309.741
309.625
309.56
309.361
309.421
309.543
309.714
309.884
310.011
309.975
309.811
309.583
309.36
309.196
309.079
308.929
309.03
309.189
309.407
309.629
309.784
309.712
309.533
309.266
308.991
308.778
308.617
308.499
308.639
308.84
309.103
309.358
309.525
309.475
309.293
309.004
308.692
308.436
308.229
308.126
308.31
308.55
308.846
309.12
309.29
309.255
309.074
308.776
308.438
308.153
307.914
307.816
308.032
308.301
308.619
308.899
309.068
308.896
308.737
308.478
308.183
307.935
307.736
307.652
307.839
308.07
308.343
308.577
308.722
308.694
308.54
308.288
307.986
307.719
307.487
307.418
307.635
307.879
308.152
308.375
308.511
308.489
308.347
308.11
307.815
307.541
307.284
307.16
307.458
307.759
308.076
308.321
308.46
308.293
308.166
307.953
307.672
307.402
307.116
307.235
307.202
307.136
306.988
306.731
306.581
306.717
306.821
306.926
307.023
307.117
307.375
307.266
307.153
307.03
306.901
307.187
307.316
307.438
307.547
307.643
307.842
307.741
307.625
307.49
307.35
307.452
307.614
307.771
307.9
307.996
308.133
308.029
307.875
307.683
307.487
307.456
307.662
307.859
308.013
308.115
307.959
307.861
307.731
307.572
307.404
307.321
307.46
307.592
307.704
307.796
307.593
307.494
307.386
307.263
307.133
306.866
306.99
307.107
307.212
307.308
307.053
306.957
306.861
306.757
306.653
306.536
306.68
306.94
307.088
307.147
307.164
306.964
306.966
306.858
306.68
306.453
306.344
306.393
306.495
306.722
306.904
307.021
307.04
306.896
306.813
306.657
306.453
306.242
306.151
306.193
306.282
306.491
306.699
306.864
306.978
306.835
306.634
306.435
306.204
305.99
305.9
305.944
306.031
306.244
306.481
306.691
306.922
306.776
306.462
306.221
305.958
305.731
305.64
305.716
305.802
306.024
306.285
306.531
306.866
306.941
306.589
306.34
306.078
305.858
305.778
305.492
305.572
305.797
306.078
306.351
306.776
306.788
306.367
306.098
305.824
305.602
305.519
305.449
305.538
305.759
306.026
306.288
306.685
306.227
305.837
305.611
305.384
305.205
305.141
304.743
304.789
304.943
305.168
305.422
305.91
305.661
305.059
304.802
304.597
304.467
304.427
304.114
304.151
304.271
304.478
304.781
305.626
306.677
304.92
304.399
304.097
303.937
303.891
304.03
304.082
304.258
304.596
305.183
307.064
307.768
305.656
304.88
304.385
304.124
304.048
304.465
304.561
304.881
305.45
306.281
308.355
308.857
306.937
306.086
305.465
305.1
304.987
305.617
305.742
306.137
306.782
307.608
309.284
309.651
308.259
307.458
306.791
306.365
306.225
306.291
306.423
306.83
307.461
308.214
309.578
309.51
308.143
307.41
306.802
306.409
306.28
306.849
306.981
307.385
307.995
308.692
309.819
310.083
309.218
308.552
307.933
307.508
307.362
307.394
307.526
307.916
308.489
309.119
310.022
309.871
309.876
309.948
310.025
310.052
310.078
308.711
307.822
307.065
306.591
306.414
306.414
306.582
307.047
307.79
308.667
308.644
307.79
307.074
306.627
306.463
306.569
306.715
307.134
307.81
308.625
308.652
307.876
307.239
306.847
306.711
307.135
307.263
307.642
308.214
308.854
309.215
308.566
307.965
307.557
307.412
306.922
307.054
307.456
308.121
308.923
308.858
308.021
307.326
306.897
306.742
306.648
306.812
307.27
308
308.862
308.89
308.008
307.248
306.768
306.588
306.6
306.779
307.265
308.038
308.928
310.241
310.232
310.231
310.173
310.12
310.128
309.959
310.013
310.13
310.288
310.447
310.569
310.375
310.247
310.081
309.918
309.803
309.734
309.386
309.515
309.7
309.937
310.175
310.341
310.145
309.979
309.745
309.513
309.339
309.211
308.863
309.051
309.295
309.595
309.882
310.07
309.879
309.696
309.417
309.128
308.898
308.716
308.452
308.688
308.976
309.319
309.633
309.827
309.642
309.454
309.15
308.82
308.547
308.319
308.129
308.397
308.715
309.085
309.412
309.606
309.424
309.236
308.921
308.565
308.26
308
307.864
308.157
308.495
308.879
309.21
309.401
309.217
309.032
308.714
308.344
308.018
307.733
307.642
307.905
308.213
308.565
308.865
309.04
308.865
308.7
308.422
308.094
307.807
307.562
307.419
307.702
308.025
308.38
308.673
308.84
308.654
308.499
308.232
307.903
307.601
307.326
307.204
307.519
307.852
308.204
308.481
308.636
308.629
308.471
308.188
307.82
307.46
307.098
307.045
307.391
307.719
308.051
308.301
308.44
308.279
308.153
307.936
307.643
307.351
307.022
306.891
307.276
307.585
307.88
308.09
308.21
308.026
307.925
307.777
307.581
307.37
307.331
307.5
307.656
307.78
307.872
307.7
307.605
307.495
307.364
307.223
307.03
307.158
307.277
307.381
307.473
307.167
307.067
306.962
306.846
306.723
306.526
306.623
306.72
306.808
306.895
306.827
306.733
306.648
306.555
306.462
306.686
306.803
306.912
307.009
307.101
307.439
307.34
307.236
307.118
306.989
307.215
307.355
307.482
307.588
307.678
307.864
307.767
307.645
307.49
307.318
307.371
307.586
307.779
307.922
308.019
308.208
308.088
307.885
307.592
307.272
306.834
307.023
307.009
306.949
306.783
306.504
306.345
306.172
306.276
306.516
306.711
306.82
306.782
306.835
306.857
306.749
306.559
306.325
306.211
305.963
306.045
306.255
306.464
306.615
306.663
306.799
306.739
306.593
306.393
306.189
306.108
305.817
305.893
306.095
306.315
306.496
306.653
306.731
306.558
306.37
306.145
305.94
305.861
305.54
305.619
305.833
306.083
306.306
306.576
306.664
306.376
306.145
305.889
305.67
305.589
305.274
305.355
305.585
305.871
306.139
306.518
306.616
306.221
305.947
305.656
305.421
305.335
305.412
305.501
305.734
306.021
306.297
306.704
306.556
306.075
305.765
305.452
305.211
305.122
305.194
305.277
305.506
305.805
306.105
306.595
306.572
306.087
305.799
305.512
305.29
305.212
305.084
305.163
305.376
305.653
305.931
306.415
306.054
305.606
305.346
305.094
304.915
304.856
304.478
304.517
304.656
304.881
305.159
305.742
305.503
304.841
304.573
304.374
304.257
304.222
303.953
303.986
304.096
304.294
304.586
305.409
306.224
304.668
304.201
303.916
303.764
303.72
303.736
303.8
304.023
304.442
305.106
307.152
307.559
305.424
304.677
304.212
303.968
303.897
304.308
304.4
304.705
305.257
306.079
308.208
308.745
306.728
305.876
305.271
304.922
304.815
305.419
305.538
305.918
306.552
307.392
309.198
309.584
308.038
307.218
306.561
306.152
306.019
306.697
306.832
307.25
307.899
308.661
309.905
309.954
308.875
308.131
307.469
307.03
306.883
306.91
307.05
307.472
308.105
308.816
309.886
310.145
309.383
308.72
308.088
307.652
307.502
308.122
308.263
308.685
309.29
309.884
310.347
310.308
309.703
309.088
308.482
308.057
307.909
307.822
307.96
308.365
308.949
309.562
310.288
310.559
309.996
309.403
308.811
308.389
308.237
307.74
307.883
308.306
308.918
309.555
309.203
308.364
307.663
307.247
307.107
306.93
307.078
307.511
308.219
309.08
309.066
308.194
307.457
306.99
306.817
306.772
306.952
307.445
308.213
309.093
309.138
308.252
307.467
306.963
306.773
306.953
307.142
307.659
308.453
309.337
309.285
308.405
307.627
307.124
306.935
306.991
307.159
307.631
308.375
309.249
309.295
308.4
307.68
307.243
307.09
307.309
307.44
307.863
308.604
309.477
309.918
309.281
308.652
308.202
308.039
308.697
308.838
309.25
309.831
310.392
310.837
310.672
310.638
310.663
310.675
310.601
310.543
310.972
310.877
310.765
310.64
310.544
310.482
310.181
310.243
310.356
310.502
310.644
310.755
310.767
310.606
310.387
310.159
309.972
309.819
309.564
309.709
309.9
310.138
310.371
310.536
310.485
310.292
310.007
309.705
309.452
309.238
309.012
309.219
309.473
309.779
310.069
310.26
310.224
310.021
309.701
309.351
309.054
308.799
308.588
308.841
309.14
309.491
309.812
310.011
309.99
309.785
309.449
309.071
308.746
308.462
308.258
308.543
308.871
309.251
309.586
309.786
309.78
309.58
309.241
308.853
308.515
308.214
308.004
308.308
308.653
309.046
309.385
309.581
309.59
309.395
309.061
308.67
308.323
308.006
307.781
308.106
308.464
308.862
309.198
309.389
309.206
309.019
308.691
308.301
307.949
307.629
307.509
307.814
308.154
308.53
308.844
309.023
309.021
308.839
308.519
308.127
307.764
307.421
307.289
307.618
307.971
308.348
308.651
308.821
308.822
308.651
308.343
307.953
307.575
307.204
307.139
307.551
307.95
308.352
308.659
308.824
308.619
308.467
308.183
307.803
307.417
307.005
306.909
307.317
307.668
308.007
308.251
308.385
308.397
308.266
308.028
307.688
307.323
306.858
306.827
307.363
307.734
308.064
308.286
308.404
308.2
308.091
307.902
307.621
307.299
306.801
307.009
306.994
306.928
306.753
306.463
306.302
306.411
306.494
306.578
306.656
306.737
307.03
306.931
306.836
306.73
306.616
306.963
307.086
307.196
307.292
307.381
307.642
307.55
307.446
307.323
307.185
307.323
307.49
307.635
307.748
307.834
308.002
307.909
307.774
307.589
307.375
307.417
307.625
307.798
307.923
308.01
307.823
307.736
307.628
307.489
307.327
307.189
307.321
307.437
307.534
307.617
307.352
307.259
307.162
307.052
306.931
306.595
306.704
306.805
306.896
306.984
306.7
306.613
306.532
306.447
306.363
306.275
306.434
306.733
306.92
306.997
307.014
306.719
306.787
306.671
306.46
306.201
306.085
306.119
306.227
306.476
306.68
306.792
306.733
306.565
306.563
306.413
306.194
305.969
305.875
305.918
306.008
306.223
306.435
306.583
306.607
306.453
306.327
306.145
305.916
305.703
305.614
305.664
305.747
305.954
306.179
306.363
306.507
306.327
306.088
305.872
305.624
305.41
305.326
305.465
305.551
305.765
306.012
306.228
306.475
306.317
305.975
305.716
305.436
305.205
305.115
305.191
305.278
305.506
305.787
306.049
306.404
306.267
305.823
305.516
305.201
304.961
304.873
304.964
305.048
305.285
305.6
305.908
306.364
306.458
305.99
305.68
305.365
305.127
305.046
304.787
304.865
305.103
305.439
305.791
306.315
306.385
305.842
305.501
305.173
304.936
304.856
304.914
304.994
305.22
305.53
305.855
306.406
306.359
305.809
305.501
305.207
304.994
304.92
304.813
304.884
305.084
305.36
305.655
306.202
305.752
305.291
304.987
304.725
304.557
304.506
304.672
304.739
304.945
305.233
305.536
305.853
305.667
305.298
304.975
304.688
304.498
304.439
304.219
304.272
304.446
304.742
305.128
305.664
306.589
305.319
304.719
304.33
304.12
304.059
304.095
304.174
304.444
304.946
305.7
307.657
308.164
306.238
305.427
304.858
304.539
304.443
304.077
304.155
304.422
304.91
305.659
307.867
308.44
306.238
305.438
304.894
304.591
304.501
305.02
305.122
305.459
306.043
306.858
308.908
309.3
307.475
306.661
306.043
305.674
305.56
306.19
306.311
306.696
307.32
308.092
309.628
309.901
308.677
307.949
307.324
306.924
306.795
307.334
307.472
307.896
308.535
309.242
310.173
310.209
309.446
308.766
308.12
307.678
307.528
308.156
308.299
308.731
309.352
309.959
310.439
310.692
310.397
309.873
309.273
308.838
308.687
308.658
308.798
309.216
309.805
310.337
310.576
310.54
310.166
309.599
309.006
308.585
308.437
308.953
309.092
309.504
310.081
310.6
310.826
311.177
311.007
310.521
309.95
309.533
309.387
309.102
309.244
309.656
310.233
310.773
311.144
310.991
310.937
310.938
310.906
310.769
310.666
309.505
308.624
307.823
307.296
307.098
307.091
307.277
307.789
308.573
309.454
309.413
308.532
307.782
307.304
307.131
307.247
307.391
307.829
308.558
309.486
309.741
308.828
308.042
307.608
307.473
308.38
308.543
308.999
309.626
310.25
310.603
309.97
309.333
308.858
308.68
307.64
307.766
308.207
309.027
309.979
309.654
308.687
307.949
307.512
307.365
307.262
307.43
307.909
308.662
309.556
309.6
308.717
307.929
307.409
307.214
307.233
307.431
307.966
308.771
309.644
310.768
310.924
311.144
311.241
311.278
311.351
311.265
311.236
311.292
311.342
311.351
311.365
311.16
311.099
311.026
310.93
310.852
310.815
310.548
310.617
310.776
310.96
311.116
311.227
310.981
310.84
310.642
310.428
310.25
310.111
309.887
310.031
310.263
310.537
310.785
310.951
310.7
310.516
310.242
309.946
309.698
309.494
309.387
309.583
309.861
310.188
310.483
310.672
310.43
310.231
309.917
309.571
309.276
309.029
309.024
309.254
309.552
309.904
310.22
310.416
310.187
309.985
309.652
309.279
308.958
308.682
308.8
309.04
309.334
309.686
310.002
310.193
309.973
309.775
309.441
309.062
308.735
308.446
308.615
308.873
309.165
309.511
309.817
310
309.783
309.593
309.265
308.888
308.557
308.254
308.415
308.701
309.004
309.35
309.65
309.825
309.606
309.423
309.101
308.722
308.381
308.055
307.789
308.131
308.492
308.887
309.218
309.404
309.21
309.025
308.695
308.296
307.929
307.58
307.576
307.947
308.323
308.723
309.048
309.227
309.018
308.84
308.518
308.114
307.729
307.349
307.328
307.739
308.139
308.546
308.864
309.036
309.067
308.9
308.591
308.185
307.774
307.324
307.044
307.513
307.938
308.346
308.647
308.805
308.593
308.448
308.174
307.788
307.379
306.901
306.882
307.435
307.851
308.227
308.484
308.616
308.649
308.525
308.292
307.939
307.53
306.902
306.831
307.438
307.803
308.111
308.312
308.422
308.218
308.116
307.944
307.683
307.367
306.814
306.863
307.465
307.766
308.003
308.157
308.249
308.021
307.935
307.818
307.658
307.459
307.372
307.528
307.659
307.76
307.84
307.634
307.547
307.45
307.336
307.204
306.952
307.07
307.176
307.269
307.355
306.985
306.89
306.797
306.694
306.585
306.375
306.456
306.537
306.612
306.691
306.648
306.564
306.496
306.424
306.35
306.586
306.684
306.775
306.857
306.939
307.345
307.255
307.165
307.064
306.949
307.242
307.367
307.473
307.562
307.642
307.868
307.785
307.688
307.565
307.414
307.535
307.723
307.87
307.976
308.055
308.289
308.2
308.062
307.851
307.57
306.934
307.095
307.051
306.952
306.744
306.432
306.258
306.081
306.193
306.465
306.698
306.813
306.728
306.713
306.792
306.68
306.461
306.2
306.082
305.837
305.921
306.15
306.384
306.537
306.5
306.517
306.533
306.382
306.158
305.933
305.85
305.559
305.634
305.844
306.078
306.259
306.351
306.385
306.277
306.097
305.866
305.658
305.58
305.247
305.323
305.531
305.777
305.988
306.205
306.26
306.031
305.818
305.571
305.36
305.283
304.935
305.011
305.228
305.498
305.746
306.078
306.149
305.811
305.558
305.283
305.062
304.981
304.651
304.727
304.95
305.248
305.54
305.971
306.145
305.712
305.413
305.106
304.874
304.795
304.518
304.594
304.825
305.155
305.499
306.012
306.112
305.604
305.253
304.916
304.677
304.596
304.689
304.771
305.011
305.347
305.7
306.207
306.062
305.524
305.131
304.779
304.541
304.46
304.547
304.625
304.858
305.202
305.587
306.142
306.2
305.608
305.24
304.908
304.682
304.608
304.649
304.722
304.938
305.248
305.592
306.199
306.138
305.519
305.193
304.901
304.7
304.631
304.547
304.608
304.789
305.057
305.367
305.985
305.504
304.975
304.706
304.489
304.355
304.315
304.169
304.207
304.334
304.541
304.805
305.347
305.532
305.067
304.772
304.525
304.372
304.327
304.124
304.167
304.309
304.548
304.864
305.506
306.568
305.015
304.496
304.18
304.01
303.959
304.026
304.103
304.363
304.845
305.576
307.46
308.031
306.333
305.552
304.981
304.648
304.544
305.289
305.411
305.787
306.386
307.118
308.459
308.539
306.798
306.005
305.412
305.062
304.954
305.535
305.652
306.02
306.614
307.357
308.866
309.159
307.89
307.201
306.616
306.234
306.108
306.739
306.862
307.236
307.786
308.392
309.414
309.637
308.844
308.316
307.802
307.436
307.309
307.891
308.006
308.34
308.793
309.233
309.825
310.121
309.223
308.569
307.968
307.571
307.441
307.951
308.09
308.512
309.133
309.777
310.406
310.643
310.233
309.677
309.085
308.665
308.522
309.095
309.225
309.614
310.149
310.618
310.919
311.007
310.777
310.334
309.784
309.369
309.224
309.168
309.307
309.722
310.287
310.745
310.89
311.309
311.142
310.728
310.19
309.778
309.633
310.111
310.243
310.636
311.158
311.581
311.81
311.603
311.403
310.94
310.386
309.983
309.844
309.511
309.653
310.065
310.64
311.173
311.553
312.088
311.592
311.036
310.457
310.041
309.89
308.994
309.166
309.637
310.274
310.916
310.196
309.182
308.33
307.883
307.756
307.479
307.612
308.04
308.781
309.785
309.672
308.765
308.011
307.531
307.359
307.33
307.521
308.048
308.837
309.714
309.758
308.898
308.093
307.546
307.34
307.445
307.421
307.447
307.551
307.855
307.965
307.677
307.612
307.615
307.647
308.208
308.147
308.09
308.094
308.387
309.254
308.828
308.842
308.936
309.008
309.846
309.801
309.75
309.859
310.334
312.109
311.872
311.558
311.129
310.856
311.702
311.826
312.051
312.26
312.448
312.693
311.852
311.748
311.735
311.69
311.598
311.544
311.721
311.722
311.749
311.743
311.728
311.765
311.046
311.077
311.197
311.32
311.405
311.468
311.499
311.407
311.289
311.14
311.019
310.979
310.335
310.445
310.643
310.874
311.073
311.208
311.212
311.072
310.873
310.649
310.475
310.379
309.789
309.958
310.202
310.493
310.753
310.922
310.931
310.77
310.535
310.283
310.096
309.977
309.409
309.608
309.869
310.185
310.472
310.654
310.686
310.524
310.287
310.047
309.882
309.762
309.193
309.4
309.646
309.956
310.242
310.421
310.48
310.327
310.1
309.87
309.704
309.539
309.007
309.236
309.478
309.778
310.053
310.224
310.303
310.158
309.936
309.7
309.506
309.278
308.794
309.059
309.316
309.618
309.887
310.05
310.138
309.996
309.768
309.508
309.27
308.982
308.543
308.849
309.137
309.454
309.725
309.883
309.657
309.485
309.187
308.831
308.505
308.174
307.847
308.203
308.559
308.943
309.26
309.438
309.489
309.32
309.02
308.651
308.299
307.931
307.584
307.983
308.367
308.764
309.08
309.253
309.299
309.133
308.831
308.441
308.054
307.632
307.605
308.066
308.472
308.865
309.158
309.313
309.067
308.912
308.614
308.205
307.775
307.274
307.038
307.562
307.999
308.406
308.692
308.838
308.881
308.748
308.49
308.105
307.67
307.062
307.137
307.817
308.234
308.584
308.81
308.926
308.684
308.575
308.371
308.052
307.66
306.965
306.89
307.559
307.906
308.183
308.362
308.462
308.516
308.423
308.267
308.022
307.699
306.984
307.093
307.839
308.134
308.347
308.479
308.558
308.312
308.235
308.117
307.933
307.675
307.017
307.148
307.087
306.967
306.735
306.405
306.23
306.286
306.333
306.382
306.43
306.495
306.803
306.723
306.657
306.585
306.505
306.921
307.017
307.1
307.172
307.246
307.596
307.518
307.44
307.346
307.232
307.452
307.589
307.696
307.778
307.847
308.062
307.989
307.895
307.764
307.59
307.641
307.797
307.907
307.982
308.043
307.787
307.721
307.654
307.566
307.447
307.199
307.291
307.362
307.421
307.483
307.075
307.005
306.95
306.889
306.817
306.386
306.431
306.471
306.512
306.571
306.281
306.221
306.193
306.171
306.151
306.176
306.347
306.699
306.965
307.113
307.189
306.766
306.827
306.707
306.43
306.116
305.989
306.047
306.163
306.453
306.708
306.821
306.741
306.483
306.569
306.416
306.154
305.899
305.798
305.821
305.914
306.152
306.395
306.547
306.48
306.299
306.261
306.077
305.828
305.603
305.513
305.525
305.609
305.822
306.062
306.244
306.31
306.115
305.939
305.728
305.477
305.262
305.175
305.2
305.282
305.491
305.738
305.947
306.142
305.942
305.64
305.397
305.131
304.914
304.829
304.871
304.953
305.167
305.433
305.677
305.993
305.81
305.392
305.108
304.82
304.599
304.517
304.58
304.66
304.881
305.173
305.461
305.886
305.728
305.215
304.887
304.577
304.357
304.279
304.363
304.438
304.659
304.975
305.308
305.82
305.673
305.107
304.742
304.417
304.204
304.134
304.286
304.36
304.585
304.925
305.307
305.856
305.951
305.416
305.028
304.681
304.45
304.377
304.209
304.279
304.503
304.855
305.268
305.811
305.891
305.341
304.929
304.576
304.349
304.276
304.343
304.415
304.636
304.978
305.382
305.961
306.003
305.365
304.984
304.66
304.45
304.383
304.403
304.469
304.666
304.968
305.322
305.983
305.914
305.234
304.893
304.606
304.423
304.364
304.316
304.369
304.539
304.813
305.152
305.813
305.331
304.74
304.48
304.282
304.164
304.13
303.995
304.027
304.134
304.316
304.562
305.154
305.048
304.372
304.123
303.949
303.848
303.818
303.979
304.016
304.134
304.331
304.601
305.253
306.138
304.674
304.245
303.987
303.847
303.805
303.821
303.886
304.104
304.509
305.137
306.911
307.484
305.798
305.116
304.635
304.357
304.271
304.877
304.976
305.289
305.8
306.469
307.927
308.276
307.064
306.427
305.904
305.569
305.459
306.04
306.176
306.572
307.161
307.808
308.778
309.022
308.37
307.83
307.281
306.885
306.742
307.402
307.536
307.901
308.377
308.805
309.208
309.356
309.154
308.822
308.405
308.065
307.934
308.435
308.548
308.844
309.188
309.424
309.47
309.575
309.636
309.486
309.208
308.946
308.839
308.385
308.492
308.799
309.202
309.566
309.994
310.316
309.719
309.145
308.582
308.197
308.07
308.668
308.786
309.142
309.645
310.122
310.521
310.76
310.46
310.063
309.615
309.284
309.17
309.571
309.695
310.065
310.556
310.972
311.249
311.419
311.17
310.763
310.249
309.851
309.712
310.171
310.3
310.681
311.179
311.597
311.901
312.461
312.025
311.569
311.067
310.693
310.565
310.517
310.644
311.032
311.566
312.046
312.428
312.204
311.862
311.361
310.804
310.409
310.276
310.718
310.841
311.221
311.801
312.427
313.124
312.836
312.029
311.418
310.84
310.439
310.295
309.237
309.415
309.898
310.556
311.249
312.338
312.72
312.424
312.1
311.636
311.117
310.819
309.903
309.102
308.303
307.733
307.515
307.493
307.691
308.234
309.019
309.86
309.795
308.9
308.152