/*--------------------------------*- C++ -*----------------------------------*\
| =========                 |                                                 |
| \\      /  F ield         | OpenFOAM: The Open Source CFD Toolbox           |
|  \\    /   O peration     | Version:  2212                                  |
|   \\  /    A nd           | Website:  www.openfoam.com                      |
|    \\/     M anipulation  |                                                 |
\*---------------------------------------------------------------------------*/
FoamFile
{
    version     2.0;
    format      ascii;
    arch        "LSB;label=32;scalar=64";
    class       volScalarField;
    location    "300";
    object      p;
}
// * * * * * * * * * * * * * * * * * * * * * * * * * * * * * * * * * * * * * //

dimensions      [0 2 -2 0 0 0 0];

internalField   nonuniform List<scalar> 
261124
(
1.76299
1.78417
1.80617
1.81801
1.82787
1.8361
1.84295
1.9032
1.89445
1.88396
1.87138
1.85629
1.82181
1.82445
1.85778
1.87415
1.88781
1.8992
1.90869
1.91666
1.90758
1.89668
1.8836
1.86793
1.87807
1.89266
1.90483
1.91496
1.92342
1.92433
1.91575
1.90547
1.89314
1.87835
1.87857
1.89353
1.90601
1.91641
1.92508
1.92571
1.91696
1.90646
1.89387
1.87877
1.87892
1.89414
1.90684
1.91742
1.92624
1.92632
1.9258
1.92518
1.92444
1.92355
1.9152
1.916
1.91666
1.91722
1.91768
1.90731
1.90692
1.90644
1.90587
1.90519
1.89317
1.89372
1.89417
1.89456
1.89488
1.87996
1.87973
1.87946
1.87913
1.87874
1.84257
1.84283
1.84304
1.84322
1.84336
1.78073
1.78069
1.78063
1.78057
1.78049
1.77449
1.78496
1.78997
1.79006
1.79015
1.79021
1.79027
1.76657
1.76652
1.76647
1.76641
1.76634
1.76405
1.79278
1.81638
1.82976
1.84092
1.85023
1.85798
1.86414
1.86481
1.86535
1.86581
1.8662
1.85845
1.85811
1.8577
1.85721
1.85662
1.8476
1.8481
1.84852
1.84887
1.84916
1.83801
1.83778
1.8375
1.83717
1.83677
1.82379
1.82406
1.82429
1.82448
1.82464
1.79713
1.79704
1.79693
1.7968
1.79664
1.84005
1.84017
1.84028
1.84036
1.84043
1.8335
1.83603
1.87119
1.88727
1.90067
1.91184
1.92114
1.91861
1.90855
1.89647
1.88199
1.86462
1.82712
1.82668
1.86524
1.88299
1.89778
1.91011
1.92039
1.92272
1.91283
1.90098
1.88675
1.86968
1.8755
1.89108
1.90407
1.91489
1.92391
1.92462
1.91554
1.90464
1.89156
1.87588
1.87619
1.89197
1.90511
1.91607
1.9252
1.92569
1.91652
1.90551
1.8923
1.87646
1.87667
1.89258
1.90584
1.91689
1.9261
1.92605
1.91662
1.9053
1.89172
1.87543
1.87526
1.89151
1.90505
1.91633
1.92574
1.92537
1.916
1.90475
1.89125
1.87505
1.87481
1.89094
1.90439
1.91559
1.92493
1.9244
1.91511
1.90395
1.89057
1.87451
1.86892
1.88631
1.90081
1.91289
1.92296
1.92034
1.90997
1.89753
1.8826
1.86468
1.8254
1.83153
1.83554
1.8357
1.83584
1.83596
1.83606
1.77353
1.7735
1.77347
1.77343
1.77339
1.76674
1.76949
1.77616
1.77622
1.77626
1.77631
1.77634
1.69948
1.69948
1.69947
1.69947
1.69946
1.69429
1.69976
1.70411
1.70412
1.70413
1.70413
1.70414
1.70728
1.70726
1.70724
1.7072
1.70717
1.7031
1.71274
1.72259
1.73013
1.73642
1.74166
1.74603
1.74672
1.74704
1.7473
1.74751
1.74769
1.74356
1.74336
1.74313
1.74284
1.7425
1.73746
1.73783
1.73814
1.73839
1.7386
1.73265
1.73242
1.73214
1.7318
1.7314
1.72414
1.72459
1.72496
1.72527
1.72553
1.71511
1.71496
1.71477
1.71455
1.71428
1.61915
1.61941
1.61963
1.61982
1.61997
1.62423
1.62395
1.6236
1.62319
1.62269
1.62538
1.62577
1.62609
1.62636
1.62659
1.62853
1.62837
1.62817
1.62792
1.62764
1.62951
1.62973
1.6299
1.63005
1.63017
1.63153
1.63144
1.63134
1.63122
1.63107
1.63087
1.62925
1.6273
1.62496
1.62215
1.61767
1.61571
1.62228
1.62499
1.62726
1.62915
1.63073
1.74401
1.73971
1.73457
1.7284
1.721
1.70977
1.78715
1.80857
1.82174
1.83272
1.84188
1.84951
1.76987
1.78911
1.77845
1.76507
1.75217
1.76828
1.77129
1.76694
1.7629
1.76052
1.75925
1.82466
1.86443
1.88241
1.8974
1.90989
1.9203
1.92304
1.91289
1.90072
1.88611
1.86858
1.87415
1.8904
1.90394
1.91522
1.92463
1.92508
1.91564
1.90431
1.89071
1.8744
1.87461
1.89097
1.90462
1.91598
1.92545
1.92577
1.91627
1.90487
1.89119
1.87478
1.87492
1.89137
1.90508
1.91651
1.92603
1.92602
1.91647
1.905
1.89125
1.87474
1.8746
1.89107
1.9048
1.91624
1.92577
1.92547
1.91596
1.90456
1.89087
1.87444
1.87425
1.89062
1.90426
1.91563
1.92511
1.92468
1.91524
1.90391
1.89032
1.87401
1.86848
1.88605
1.90069
1.91289
1.92305
1.9203
1.90987
1.89737
1.88235
1.86434
1.82436
1.83037
1.83425
1.83438
1.83449
1.83459
1.83466
1.77147
1.77145
1.77142
1.77139
1.77135
1.76465
1.76529
1.77193
1.77197
1.772
1.77203
1.77205
1.69491
1.69491
1.6949
1.6949
1.6949
1.68968
1.69128
1.69649
1.69649
1.6965
1.6965
1.6965
1.60644
1.60644
1.60644
1.60644
1.60644
1.60243
1.60493
1.60884
1.60884
1.60884
1.60884
1.60884
1.61202
1.61202
1.61202
1.61201
1.61201
1.60822
1.61209
1.61545
1.61547
1.61548
1.61549
1.61549
1.51343
1.51343
1.51343
1.51342
1.51342
1.51143
1.5142
1.51596
1.51676
1.51742
1.51797
1.51842
1.51784
1.51788
1.51792
1.51796
1.51799
1.51769
1.51764
1.51757
1.5175
1.51741
1.51689
1.51704
1.51716
1.51726
1.51735
1.51692
1.51681
1.51666
1.51649
1.51628
1.51554
1.51583
1.51607
1.51626
1.51643
1.51519
1.5151
1.51499
1.51486
1.51471
1.40815
1.4082
1.40824
1.40828
1.40831
1.40808
1.40803
1.40796
1.40789
1.4078
1.40793
1.408
1.40805
1.4081
1.40814
1.40819
1.40816
1.40813
1.40809
1.40805
1.40814
1.40817
1.40819
1.40821
1.40823
1.40825
1.40825
1.40825
1.40823
1.40821
1.40908
1.40901
1.40891
1.40879
1.40865
1.40833
1.40865
1.41
1.41013
1.41024
1.41034
1.41041
1.5193
1.5189
1.51839
1.51778
1.51705
1.51368
1.51315
1.51742
1.51809
1.51865
1.51912
1.51949
1.63005
1.62855
1.62677
1.62466
1.62211
1.6145
1.70765
1.7195
1.72638
1.73212
1.7369
1.74089
1.73814
1.73414
1.72934
1.72357
1.71666
1.70371
1.77993
1.8021
1.81342
1.82285
1.83071
1.83726
1.89539
1.88728
1.87756
1.8659
1.85191
1.81822
1.81949
1.85752
1.87312
1.88613
1.89697
1.906
1.91438
1.90484
1.8934
1.87967
1.8632
1.82392
1.82392
1.86362
1.88026
1.89413
1.90569
1.91533
1.9154
1.90568
1.89403
1.88004
1.86326
1.82297
1.8224
1.8631
1.87995
1.894
1.9057
1.91546
1.91549
1.90572
1.894
1.87993
1.86305
1.82215
1.82205
1.86303
1.87992
1.894
1.90573
1.9155
1.9203
1.90987
1.89736
1.88234
1.86432
1.82423
1.8302
1.83406
1.83419
1.8343
1.83439
1.83447
1.87467
1.8912
1.90497
1.91645
1.92601
1.92576
1.91622
1.90477
1.89103
1.87454
1.87437
1.89082
1.90453
1.91595
1.92547
1.92511
1.91562
1.90424
1.89058
1.87418
1.87395
1.89028
1.90389
1.91523
1.92468
1.92305
1.91288
1.90067
1.88601
1.86843
1.86843
1.88602
1.90067
1.91288
1.92306
1.92468
1.91523
1.90388
1.89027
1.87394
1.87417
1.89057
1.90423
1.91562
1.92511
1.92547
1.91595
1.90452
1.89081
1.87436
1.87452
1.89102
1.90476
1.91622
1.92576
1.92601
1.91644
1.90496
1.89119
1.87466
1.83448
1.8344
1.83431
1.8342
1.83407
1.83021
1.76431
1.77105
1.77109
1.77112
1.77114
1.77116
1.77121
1.77119
1.77116
1.77113
1.7711
1.76438
1.68855
1.69379
1.6938
1.6938
1.6938
1.69381
1.69413
1.69413
1.69413
1.69413
1.69412
1.68889
1.60016
1.60417
1.60417
1.60417
1.60417
1.60417
1.60496
1.60496
1.60496
1.60496
1.60496
1.60095
1.50377
1.5067
1.5067
1.5067
1.5067
1.5067
1.50787
1.50787
1.50787
1.50787
1.50787
1.50495
1.50673
1.50956
1.50956
1.50956
1.50956
1.50956
1.51153
1.51153
1.51152
1.51152
1.51152
1.50894
1.40637
1.40795
1.40795
1.40795
1.40795
1.40795
1.40847
1.40847
1.40847
1.40847
1.40847
1.40755
1.30369
1.30398
1.30398
1.30399
1.30399
1.30399
1.30297
1.30297
1.30297
1.30296
1.30296
1.30223
1.30223
1.30223
1.30223
1.30223
1.30224
1.30223
1.30223
1.30223
1.30223
1.30223
1.30223
1.30224
1.30223
1.30223
1.30224
1.30223
1.30223
1.30223
1.30223
1.30223
1.30223
1.30223
1.30224
1.30224
1.19937
1.19937
1.19937
1.19937
1.19937
1.19937
1.19937
1.19937
1.19937
1.19937
1.19937
1.19937
1.19937
1.19937
1.19937
1.19937
1.19937
1.19937
1.19937
1.19937
1.19937
1.19937
1.19937
1.19937
1.19937
1.2001
1.2001
1.2001
1.2001
1.2001
1.20117
1.20117
1.20117
1.20117
1.20117
1.20115
1.2005
1.20004
1.20004
1.20005
1.20004
1.20004
1.20107
1.20107
1.20107
1.20106
1.20107
1.20113
1.30403
1.30436
1.30439
1.30439
1.30441
1.30444
1.30506
1.30507
1.30505
1.30504
1.30501
1.30412
1.40855
1.41061
1.41074
1.41085
1.41094
1.41101
1.41111
1.41104
1.41094
1.41082
1.41067
1.40818
1.51233
1.51709
1.51781
1.51841
1.51892
1.51934
1.62903
1.62749
1.62566
1.62345
1.62081
1.61264
1.61096
1.61976
1.62277
1.62528
1.62737
1.62913
1.73686
1.73253
1.72732
1.72107
1.71359
1.70017
1.77437
1.79616
1.80765
1.81723
1.8252
1.83185
1.88555
1.87777
1.86843
1.85723
1.84379
1.8113
1.81227
1.84859
1.86341
1.87577
1.88606
1.89465
1.89575
1.8869
1.87627
1.86352
1.84823
1.81126
1.81841
1.85712
1.87319
1.88659
1.89775
1.90706
1.90724
1.89786
1.8866
1.87308
1.85687
1.81764
1.81722
1.85679
1.87306
1.88661
1.89791
1.90733
1.90737
1.89794
1.88663
1.87306
1.85677
1.81702
1.81695
1.85675
1.87305
1.88663
1.89795
1.90739
1.90739
1.89796
1.88663
1.87305
1.85674
1.81692
1.82201
1.86303
1.87992
1.894
1.90573
1.91551
1.92031
1.90988
1.89736
1.88234
1.86431
1.82421
1.8242
1.86432
1.88234
1.89736
1.90988
1.92031
1.92306
1.91288
1.90067
1.88602
1.86843
1.87394
1.89027
1.90388
1.91523
1.92468
1.92511
1.91562
1.90423
1.89057
1.87417
1.87436
1.89081
1.90452
1.91595
1.92547
1.92576
1.91622
1.90476
1.89102
1.87452
1.87465
1.89119
1.90496
1.91644
1.92601
1.92601
1.91644
1.90496
1.89119
1.87466
1.87452
1.89102
1.90476
1.91622
1.92576
1.92547
1.91595
1.90452
1.89081
1.87436
1.87417
1.89057
1.90423
1.91562
1.92511
1.92468
1.91523
1.90388
1.89027
1.87394
1.86843
1.88602
1.90067
1.91288
1.92306
1.92031
1.90988
1.89736
1.88234
1.86432
1.82421
1.83021
1.83408
1.83421
1.83432
1.83441
1.83449
1.77118
1.77116
1.77113
1.7711
1.77107
1.7643
1.76429
1.77105
1.77108
1.77111
1.77114
1.77116
1.69367
1.69367
1.69367
1.69367
1.69366
1.68839
1.68842
1.69369
1.69369
1.69369
1.69369
1.6937
1.60362
1.60362
1.60362
1.60362
1.60362
1.59961
1.59977
1.60378
1.60378
1.60378
1.60378
1.60378
1.5056
1.5056
1.5056
1.5056
1.5056
1.50271
1.50308
1.50599
1.50599
1.50599
1.50599
1.50599
1.40448
1.40448
1.40448
1.40448
1.40448
1.40249
1.40304
1.40504
1.40504
1.40504
1.40504
1.40504
1.40588
1.40588
1.40588
1.40588
1.40588
1.40389
1.40506
1.40693
1.40693
1.40693
1.40693
1.40693
1.30386
1.30386
1.30386
1.30386
1.30386
1.30273
1.30337
1.30424
1.30424
1.30424
1.30424
1.30424
1.20165
1.20165
1.20165
1.20165
1.20165
1.20123
1.10028
1.10045
1.10045
1.10045
1.10045
1.10045
1.10002
1.10002
1.10002
1.10002
1.10002
1.10009
1.09948
1.09908
1.09908
1.09908
1.09909
1.09908
1.09863
1.09863
1.09863
1.09863
1.09863
1.09863
1.09863
1.09863
1.09863
1.09863
1.09863
1.09863
1.09863
1.09863
1.09863
1.09863
1.09863
1.09862
1.09862
1.09862
1.09863
1.09863
1.09863
1.09863
1.09863
1.09918
1.09918
1.09918
1.09918
1.09918
0.99963
0.99963
0.999631
0.999631
0.999631
0.999284
0.999284
0.999284
0.999286
0.999288
0.999289
0.999289
0.99929
0.99929
0.99929
0.999285
0.999285
0.999285
0.999284
0.999284
0.999292
0.999292
0.999292
0.999293
0.999293
0.999285
0.999285
0.999285
0.999285
0.999284
0.999542
0.999541
0.999537
0.999541
0.999539
0.999801
1.00004
0.999889
0.999886
0.999888
0.999888
0.999892
1.09976
1.09977
1.09976
1.09976
1.09976
1.09993
1.09994
1.09999
1.09999
1.09999
1.09999
1.09999
1.20155
1.20154
1.20154
1.20153
1.20153
1.20122
1.20091
1.2014
1.20141
1.20141
1.20141
1.20142
1.30513
1.30511
1.3051
1.30509
1.30506
1.30387
1.30346
1.30481
1.30485
1.30486
1.30488
1.30491
1.41124
1.41114
1.41101
1.41086
1.41067
1.40786
1.51172
1.517
1.51785
1.51857
1.51916
1.51966
1.52092
1.52024
1.51943
1.51846
1.51729
1.51143
1.61003
1.61962
1.62335
1.62647
1.62906
1.63123
1.73899
1.73399
1.72799
1.7208
1.71216
1.6979
1.76945
1.79082
1.80262
1.81245
1.82062
1.82744
1.8737
1.86656
1.858
1.84773
1.83541
1.8045
1.805
1.83867
1.85196
1.86304
1.87227
1.87997
1.88091
1.87298
1.86345
1.85203
1.83832
1.80411
1.80356
1.83817
1.852
1.86353
1.87313
1.88114
1.89599
1.88706
1.87634
1.86348
1.84805
1.81061
1.81028
1.84801
1.86348
1.87638
1.88713
1.89609
1.89613
1.88716
1.8764
1.86349
1.848
1.81013
1.81006
1.84798
1.86349
1.87641
1.88717
1.89615
1.89615
1.88718
1.8764
1.86348
1.84797
1.81003
1.81002
1.84797
1.86348
1.8764
1.88717
1.89615
1.9074
1.89796
1.88663
1.87305
1.85674
1.8169
1.822
1.86303
1.87992
1.894
1.90574
1.91551
1.91551
1.90574
1.894
1.87992
1.86303
1.82201
1.82201
1.86303
1.87992
1.894
1.90574
1.91551
1.92031
1.90988
1.89736
1.88234
1.86432
1.82421
1.83022
1.83409
1.83422
1.83433
1.83442
1.8345
1.87466
1.89119
1.90496
1.91644
1.92601
1.92576
1.91622
1.90476
1.89102
1.87452
1.87436
1.89081
1.90452
1.91595
1.92547
1.92511
1.91562
1.90423
1.89057
1.87417
1.87394
1.89027
1.90388
1.91523
1.92468
1.92306
1.91288
1.90067
1.88602
1.86844
1.86844
1.88602
1.90067
1.91288
1.92306
1.92468
1.91523
1.90388
1.89027
1.87394
1.87417
1.89057
1.90423
1.91562
1.92511
1.92547
1.91595
1.90452
1.89081
1.87437
1.87452
1.89102
1.90476
1.91622
1.92576
1.92601
1.91644
1.90496
1.89119
1.87466
1.8345
1.83443
1.83434
1.83422
1.83409
1.83022
1.76432
1.77109
1.77112
1.77115
1.77118
1.7712
1.77119
1.77117
1.77114
1.77112
1.77108
1.76431
1.68839
1.69368
1.69368
1.69368
1.69368
1.69369
1.69368
1.69367
1.69367
1.69367
1.69367
1.68839
1.59952
1.60353
1.60353
1.60353
1.60353
1.60353
1.60355
1.60355
1.60355
1.60355
1.60355
1.59954
1.50243
1.50531
1.50531
1.50531
1.50531
1.50531
1.5054
1.5054
1.5054
1.5054
1.5054
1.50252
1.40198
1.40393
1.40393
1.40393
1.40393
1.40393
1.40413
1.40413
1.40413
1.40413
1.40413
1.40217
1.30079
1.30201
1.30201
1.30201
1.30201
1.30201
1.3023
1.3023
1.3023
1.3023
1.3023
1.30106
1.30146
1.30272
1.30272
1.30272
1.30272
1.30272
1.30327
1.30327
1.30327
1.30327
1.30327
1.30203
1.20059
1.20127
1.20127
1.20127
1.20127
1.20127
1.20159
1.20159
1.20159
1.20159
1.20159
1.20097
1.1002
1.10049
1.10049
1.10049
1.10049
1.10049
1.00046
1.00046
1.00046
1.00046
1.00046
1.00035
1.00038
1.00044
1.00044
1.00044
1.00044
1.00044
1.00016
1.00016
1.00016
1.00016
1.00016
1.00023
0.901167
0.901122
0.901122
0.901122
0.901122
0.901122
0.900843
0.900843
0.900843
0.900843
0.900843
0.900662
0.900663
0.900663
0.900663
0.900663
0.900663
0.900663
0.900663
0.900663
0.900662
0.900669
0.900669
0.900669
0.900669
0.900669
0.900663
0.900663
0.900663
0.900663
0.900662
0.900662
0.900663
0.900663
0.900663
0.900663
0.802386
0.802386
0.802386
0.802385
0.802385
0.802385
0.802385
0.802386
0.802386
0.802386
0.802386
0.802386
0.802385
0.802385
0.802385
0.802385
0.802385
0.802385
0.802385
0.802385
0.802385
0.802385
0.802385
0.802385
0.802384
0.802456
0.802456
0.802456
0.802456
0.802456
0.802559
0.802559
0.802559
0.802559
0.802559
0.802587
0.802493
0.802428
0.802429
0.802429
0.802429
0.802429
0.802476
0.802476
0.802476
0.802476
0.802476
0.80253
0.901026
0.900916
0.90092
0.900916
0.900919
0.900919
0.900846
0.900846
0.90084
0.900846
0.900844
0.90091
0.999963
0.999914
0.999911
0.999914
0.99991
0.999914
0.999482
0.999474
0.999479
0.999479
0.99948
0.999513
1.09953
1.09967
1.09966
1.09967
1.09967
1.09966
1.09878
1.09878
1.09878
1.09877
1.09878
1.09869
1.20026
1.2008
1.2008
1.2008
1.20081
1.20081
1.19975
1.19974
1.19974
1.19973
1.19973
1.19927
1.30295
1.3044
1.30445
1.30448
1.30452
1.30455
1.41167
1.41152
1.41133
1.41111
1.41085
1.4077
1.40756
1.41109
1.41152
1.41188
1.41216
1.41243
1.52291
1.52194
1.52078
1.51939
1.51771
1.5111
1.60906
1.61972
1.62461
1.6287
1.63212
1.63496
1.74865
1.74272
1.7356
1.72707
1.71683
1.69871
1.76728
1.79066
1.8027
1.81274
1.8211
1.82807
1.86123
1.85514
1.84784
1.83907
1.82855
1.80051
1.80052
1.82969
1.84056
1.84963
1.8572
1.8635
1.86387
1.85744
1.84971
1.84044
1.82932
1.79975
1.79927
1.82919
1.8404
1.84974
1.85752
1.86401
1.86407
1.85756
1.84976
1.8404
1.82916
1.79903
1.80328
1.83814
1.85201
1.86357
1.8732
1.88123
1.88127
1.87323
1.86359
1.85202
1.83813
1.80315
1.8031
1.83811
1.85201
1.86359
1.87324
1.88128
1.88128
1.87324
1.86358
1.852
1.8381
1.80307
1.80306
1.8381
1.85199
1.86358
1.87323
1.88128
1.88127
1.87323
1.86357
1.85199
1.83809
1.80305
1.81001
1.84797
1.86348
1.8764
1.88717
1.89615
1.9074
1.89796
1.88663
1.87305
1.85674
1.8169
1.8169
1.85674
1.87305
1.88663
1.89796
1.9074
1.9074
1.89796
1.88663
1.87305
1.85674
1.8169
1.82201
1.86303
1.87993
1.894
1.90574
1.91551
1.92031
1.90988
1.89737
1.88235
1.86432
1.82422
1.82422
1.86433
1.88235
1.89737
1.90988
1.92031
1.92306
1.91288
1.90067
1.88602
1.86844
1.87394
1.89027
1.90388
1.91523
1.92468
1.92511
1.91562
1.90423
1.89057
1.87417
1.87437
1.89081
1.90452
1.91595
1.92547
1.92576
1.91622
1.90476
1.89102
1.87452
1.87466
1.89119
1.90496
1.91644
1.92601
1.92601
1.91644
1.90496
1.89119
1.87466
1.87452
1.89102
1.90476
1.91622
1.92576
1.92547
1.91595
1.90452
1.89081
1.87437
1.87417
1.89057
1.90423
1.91562
1.92511
1.92468
1.91523
1.90388
1.89027
1.87394
1.86844
1.88602
1.90067
1.91288
1.92306
1.92031
1.90988
1.89737
1.88235
1.86433
1.82422
1.83023
1.8341
1.83423
1.83434
1.83443
1.8345
1.77121
1.77118
1.77116
1.77113
1.77109
1.76433
1.76433
1.77109
1.77113
1.77116
1.77118
1.7712
1.6937
1.6937
1.6937
1.69369
1.69369
1.68841
1.6884
1.69368
1.69369
1.69369
1.69369
1.69369
1.60353
1.60353
1.60353
1.60353
1.60353
1.59952
1.59951
1.60353
1.60353
1.60353
1.60353
1.60353
1.50525
1.50525
1.50525
1.50525
1.50525
1.50237
1.50239
1.50526
1.50526
1.50526
1.50526
1.50526
1.40375
1.40375
1.40375
1.40375
1.40375
1.40183
1.40188
1.40381
1.40381
1.40381
1.40381
1.40381
1.3017
1.3017
1.3017
1.3017
1.3017
1.30051
1.30062
1.30182
1.30182
1.30182
1.30182
1.30182
1.20018
1.20018
1.20018
1.20018
1.20018
1.19953
1.19969
1.20036
1.20036
1.20036
1.20036
1.20036
1.2006
1.2006
1.2006
1.2006
1.2006
1.19992
1.20021
1.20091
1.20091
1.20091
1.20091
1.20091
1.10005
1.10005
1.10005
1.10005
1.10005
1.09971
1.09997
1.1003
1.1003
1.1003
1.1003
1.1003
1.00031
1.00031
1.00031
1.00031
1.00031
1.00018
0.900986
0.901024
0.901024
0.901024
0.901024
0.901024
0.901218
0.901218
0.901218
0.901218
0.901218
0.90118
0.901247
0.90126
0.90126
0.90126
0.90126
0.90126
0.802576
0.802576
0.802576
0.802576
0.802576
0.802578
0.704166
0.704152
0.704152
0.704152
0.704152
0.704152
0.704238
0.704238
0.704238
0.704238
0.704238
0.704261
0.704271
0.704262
0.704262
0.704259
0.704262
0.704262
0.704236
0.704237
0.704237
0.704237
0.704237
0.704237
0.704237
0.704237
0.704237
0.704236
0.70423
0.70423
0.70423
0.70423
0.70423
0.704237
0.704237
0.704236
0.704236
0.704236
0.704235
0.704236
0.704236
0.704236
0.704236
0.704245
0.704245
0.704245
0.704245
0.704244
0.606099
0.606098
0.606098
0.606098
0.606098
0.606127
0.606126
0.606126
0.606126
0.606124
0.606127
0.606127
0.606127
0.606127
0.606127
0.606127
0.606127
0.606127
0.606127
0.606127
0.606127
0.606127
0.606127
0.606128
0.606128
0.606128
0.606128
0.606128
0.606127
0.606127
0.606163
0.606163
0.606166
0.606163
0.606158
0.606138
0.606223
0.606245
0.606247
0.60625
0.606247
0.606247
0.704304
0.704304
0.704304
0.704303
0.704303
0.704313
0.704321
0.704317
0.70432
0.704314
0.704317
0.704317
0.802408
0.802404
0.802411
0.802405
0.802408
0.802449
0.802195
0.802134
0.802129
0.802137
0.802131
0.802134
0.90043
0.900426
0.900427
0.900427
0.900426
0.90051
0.89972
0.899547
0.899551
0.899551
0.899547
0.899546
0.99849
0.998483
0.998484
0.998487
0.998486
0.998608
0.997073
0.996736
0.99674
0.996734
0.99674
0.996736
1.09721
1.09721
1.09721
1.09721
1.09721
1.0973
1.09516
1.09473
1.09473
1.09473
1.09473
1.09474
1.19813
1.19812
1.19811
1.1981
1.19809
1.19781
1.3023
1.30381
1.3039
1.30396
1.30403
1.30406
1.30346
1.30339
1.30328
1.30316
1.303
1.30141
1.40729
1.41136
1.41204
1.41261
1.41308
1.41348
1.52521
1.52382
1.52214
1.52014
1.51772
1.51022
1.60608
1.61796
1.62422
1.62945
1.63381
1.63745
1.74763
1.74121
1.73349
1.72424
1.71313
1.69219
1.73422
1.76611
1.78044
1.79238
1.80234
1.81063
1.83662
1.82923
1.82038
1.80978
1.79708
1.77073
1.77065
1.79912
1.81254
1.82374
1.8331
1.84091
1.84094
1.83294
1.82334
1.81182
1.798
1.76936
1.7687
1.79767
1.8116
1.82321
1.83287
1.84093
1.84093
1.83286
1.82316
1.81153
1.79757
1.76839
1.76826
1.79753
1.8115
1.82314
1.83284
1.84092
1.86408
1.85757
1.84977
1.84039
1.82914
1.79893
1.79887
1.82913
1.84038
1.84976
1.85757
1.86408
1.86408
1.85757
1.84975
1.84037
1.82911
1.79885
1.79883
1.8291
1.84036
1.84974
1.85756
1.86407
1.86407
1.85756
1.84974
1.84035
1.8291
1.79883
1.79882
1.8291
1.84035
1.84973
1.85755
1.86407
1.88127
1.87323
1.86357
1.85199
1.83809
1.80304
1.81001
1.84796
1.86348
1.8764
1.88717
1.89615
1.89615
1.88717
1.8764
1.86347
1.84796
1.81001
1.81001
1.84796
1.86347
1.8764
1.88717
1.89615
1.9074
1.89796
1.88663
1.87305
1.85674
1.8169
1.82201
1.86303
1.87993
1.894
1.90574
1.91551
1.91551
1.90574
1.894
1.87993
1.86303
1.82201
1.82201
1.86303
1.87993
1.894
1.90574
1.91551
1.92031
1.90988
1.89737
1.88235
1.86433
1.82422
1.83023
1.8341
1.83423
1.83434
1.83443
1.8345
1.87466
1.89119
1.90496
1.91644
1.92601
1.92576
1.91622
1.90476
1.89102
1.87452
1.87437
1.89081
1.90452
1.91595
1.92547
1.92511
1.91562
1.90423
1.89057
1.87417
1.87394
1.89027
1.90388
1.91523
1.92468
1.92306
1.91288
1.90067
1.88602
1.86844
1.86844
1.88602
1.90067
1.91288
1.92306
1.92468
1.91523
1.90388
1.89027
1.87394
1.87417
1.89057
1.90423
1.91562
1.92511
1.92547
1.91595
1.90452
1.89081
1.87437
1.87452
1.89102
1.90476
1.91622
1.92576
1.92601
1.91644
1.90496
1.89119
1.87466
1.8345
1.83443
1.83434
1.83423
1.8341
1.83023
1.76433
1.7711
1.77113
1.77116
1.77118
1.77121
1.77121
1.77118
1.77116
1.77113
1.7711
1.76433
1.68841
1.69369
1.69369
1.6937
1.6937
1.6937
1.6937
1.6937
1.6937
1.69369
1.69369
1.68841
1.59952
1.60353
1.60353
1.60353
1.60353
1.60353
1.60353
1.60353
1.60353
1.60353
1.60353
1.59952
1.50236
1.50524
1.50524
1.50524
1.50524
1.50524
1.50524
1.50524
1.50524
1.50524
1.50524
1.50236
1.40179
1.40371
1.40371
1.40371
1.40371
1.40371
1.40373
1.40373
1.40373
1.40373
1.40373
1.4018
1.30042
1.3016
1.3016
1.3016
1.3016
1.3016
1.30163
1.30163
1.30163
1.30163
1.30163
1.30045
1.19934
1.19997
1.19997
1.19997
1.19997
1.19997
1.20005
1.20005
1.20005
1.20005
1.20005
1.19941
1.09891
1.09917
1.09917
1.09917
1.09917
1.09917
1.09934
1.09934
1.09934
1.09934
1.09934
1.09906
1.09925
1.09955
1.09955
1.09955
1.09955
1.09955
1.09979
1.09979
1.09979
1.09979
1.09979
1.09947
0.999675
0.999785
0.999785
0.999785
0.999785
0.999785
1.00007
1.00007
1.00007
1.00007
1.00007
0.999942
0.900689
0.900707
0.900707
0.900707
0.900707
0.900707
0.801646
0.801646
0.801646
0.801646
0.801646
0.801702
0.802157
0.802143
0.802143
0.802143
0.802143
0.802143
0.802444
0.802443
0.802444
0.802444
0.802444
0.802441
0.703931
0.703911
0.703911
0.703911
0.703911
0.703911
0.605487
0.605487
0.605487
0.605487
0.605487
0.60553
0.605882
0.605856
0.605856
0.605856
0.605856
0.605856
0.606028
0.606028
0.606028
0.606028
0.606028
0.606059
0.507905
0.507861
0.507861
0.507861
0.507861
0.507861
0.507981
0.507981
0.507981
0.507981
0.50798
0.508028
0.508026
0.508026
0.508026
0.508026
0.508022
0.508022
0.508022
0.508021
0.508021
0.508033
0.508033
0.508034
0.508034
0.508034
0.50802
0.50802
0.50802
0.50802
0.508019
0.508027
0.508028
0.508028
0.508028
0.508028
0.409928
0.409928
0.409928
0.409928
0.409927
0.409927
0.409927
0.409928
0.409928
0.409928
0.409921
0.409921
0.409921
0.409921
0.409921
0.409932
0.409932
0.409933
0.409933
0.409933
0.409922
0.409922
0.409922
0.409922
0.409922
0.409869
0.40987
0.40987
0.40987
0.40987
0.409719
0.409719
0.409719
0.409719
0.409719
0.409775
0.409936
0.409991
0.409996
0.409991
0.409997
0.409994
0.410161
0.410165
0.410161
0.410163
0.410161
0.410104
0.508168
0.508219
0.508212
0.508218
0.508215
0.508215
0.508445
0.508445
0.508451
0.50844
0.508447
0.508386
0.606342
0.606373
0.606373
0.606373
0.606373
0.606373
0.606564
0.606568
0.606568
0.606568
0.606568
0.606519
0.704274
0.704267
0.704269
0.704264
0.704267
0.704267
0.704131
0.704132
0.704129
0.704134
0.704129
0.704148
0.801686
0.801567
0.801561
0.801567
0.801567
0.801566
0.800571
0.800563
0.800567
0.800567
0.800567
0.800798
0.898365
0.898006
0.898003
0.898009
0.898006
0.898001
0.895485
0.895479
0.895488
0.895478
0.895482
0.896199
0.994648
0.993915
0.993913
0.993909
0.993916
0.993908
0.989623
0.989618
0.989623
0.98962
0.989623
0.991052
1.09204
1.09106
1.09106
1.09107
1.09107
1.09107
1.19584
1.19582
1.1958
1.19578
1.19575
1.19577
1.19317
1.19276
1.19282
1.19287
1.1929
1.19293
1.30291
1.30275
1.30255
1.30232
1.30204
1.30028
1.40673
1.41153
1.41266
1.4136
1.41439
1.41504
1.52809
1.52608
1.52367
1.52078
1.51731
1.5087
1.60124
1.61457
1.62249
1.6291
1.63462
1.63922
1.73377
1.72725
1.71942
1.71003
1.69874
1.67762
1.71567
1.74726
1.75975
1.77017
1.77885
1.78609
1.79346
1.78561
1.77619
1.76488
1.75132
1.71637
1.7329
1.76891
1.78479
1.79803
1.80907
1.81826
1.81843
1.80896
1.7976
1.78396
1.7676
1.73126
1.73043
1.76713
1.78362
1.79736
1.8088
1.81835
1.8183
1.80874
1.79727
1.7835
1.76699
1.73006
1.7299
1.76692
1.78345
1.79722
1.8087
1.81826
1.81823
1.80866
1.79718
1.78341
1.76688
1.72982
1.7682
1.7975
1.81147
1.82312
1.83282
1.8409
1.84089
1.83281
1.8231
1.81145
1.79747
1.76816
1.76814
1.79746
1.81144
1.82309
1.83279
1.84088
1.84087
1.83279
1.82309
1.81143
1.79745
1.76813
1.76813
1.79745
1.81143
1.82308
1.83279
1.84087
1.84087
1.83279
1.82308
1.81143
1.79744
1.76812
1.79882
1.82909
1.84035
1.84973
1.85755
1.86407
1.88127
1.87323
1.86357
1.85199
1.83809
1.80304
1.80304
1.83809
1.85199
1.86357
1.87323
1.88127
1.88127
1.87323
1.86357
1.85199
1.83809
1.80304
1.81001
1.84796
1.86347
1.8764
1.88717
1.89615
1.9074
1.89796
1.88663
1.87305
1.85674
1.8169
1.8169
1.85674
1.87304
1.88663
1.89796
1.9074
1.9074
1.89796
1.88663
1.87304
1.85674
1.8169
1.82201
1.86303
1.87993
1.894
1.90574
1.91551
1.92031
1.90988
1.89737
1.88235
1.86433
1.82422
1.82422
1.86433
1.88235
1.89737
1.90988
1.92031
1.92306
1.91288
1.90067
1.88602
1.86844
1.87394
1.89027
1.90388
1.91523
1.92468
1.92511
1.91562
1.90423
1.89057
1.87417
1.87437
1.89081
1.90452
1.91595
1.92547
1.92576
1.91622
1.90476
1.89102
1.87452
1.87466
1.89119
1.90496
1.91644
1.92601
1.92601
1.92576
1.92547
1.92511
1.92468
1.91523
1.91562
1.91595
1.91622
1.91644
1.90496
1.90476
1.90452
1.90423
1.90388
1.89027
1.89057
1.89081
1.89102
1.89119
1.87466
1.87452
1.87437
1.87417
1.87394
1.8341
1.83423
1.83434
1.83443
1.8345
1.77121
1.77118
1.77116
1.77113
1.77109
1.76433
1.76433
1.7711
1.77113
1.77116
1.77118
1.77121
1.6937
1.6937
1.6937
1.69369
1.69369
1.68841
1.68841
1.69369
1.69369
1.6937
1.6937
1.6937
1.60353
1.60353
1.60353
1.60353
1.60353
1.59952
1.59952
1.60353
1.60353
1.60353
1.60353
1.60353
1.50524
1.50524
1.50524
1.50524
1.50524
1.50237
1.50237
1.50524
1.50524
1.50524
1.50524
1.50524
1.40372
1.40372
1.40372
1.40372
1.40372
1.40179
1.40179
1.40371
1.40371
1.40371
1.40371
1.40371
1.30158
1.30158
1.30158
1.30158
1.30158
1.30041
1.3004
1.30158
1.30158
1.30158
1.30158
1.30158
1.19991
1.19991
1.19991
1.19991
1.19991
1.19929
1.1993
1.19992
1.19992
1.19992
1.19992
1.19992
1.09899
1.09899
1.09899
1.09899
1.09899
1.09874
1.0988
1.09905
1.09905
1.09905
1.09905
1.09905
0.998667
0.998667
0.998667
0.998667
0.998667
0.998669
0.998859
0.998881
0.998881
0.998881
0.998881
0.998881
0.99916
0.99916
0.99916
0.99916
0.99916
0.99911
0.999391
0.999473
0.999473
0.999473
0.999473
0.999473
0.899771
0.899771
0.899771
0.899771
0.899771
0.899839
0.9003
0.900282
0.900282
0.900282
0.900282
0.900282
0.800939
0.800939
0.800939
0.800939
0.800939
0.801064
0.701743
0.701497
0.701497
0.701497
0.701497
0.701497
0.702661
0.702661
0.702661
0.702661
0.702661
0.702784
0.703492
0.703439
0.703439
0.703439
0.703439
0.703439
0.6048
0.6048
0.6048
0.6048
0.6048
0.604896
0.506345
0.506206
0.506206
0.506206
0.506206
0.506206
0.507128
0.507128
0.507128
0.507128
0.507128
0.507193
0.507661
0.507619
0.507619
0.50762
0.50762
0.50762
0.409425
0.409425
0.409425
0.409425
0.409425
0.409478
0.311332
0.311271
0.311271
0.311271
0.311271
0.311271
0.311598
0.311598
0.311598
0.311598
0.311598
0.311657
0.311832
0.311898
0.311896
0.311897
0.311897
0.311897
0.311827
0.311827
0.311827
0.311828
0.311828
0.311827
0.311827
0.311827
0.311827
0.311826
0.311826
0.311827
0.311827
0.311827
0.311827
0.311822
0.311822
0.311821
0.311821
0.311821
0.311826
0.311826
0.311826
0.311826
0.311826
0.311762
0.311762
0.311762
0.311762
0.311762
0.213659
0.213659
0.213659
0.213659
0.213659
0.213725
0.213725
0.213725
0.213725
0.213724
0.213725
0.213725
0.213725
0.213726
0.213726
0.213726
0.213726
0.213726
0.213725
0.213725
0.213725
0.213726
0.213726
0.213726
0.213726
0.213726
0.213726
0.213726
0.213726
0.213725
0.213789
0.213792
0.213789
0.213791
0.213788
0.213725
0.21389
0.213947
0.21395
0.21395
0.213947
0.213951
0.312072
0.312076
0.312072
0.312074
0.312074
0.31201
0.312309
0.312384
0.312382
0.312379
0.312389
0.312382
0.410456
0.410456
0.410456
0.410461
0.410454
0.410385
0.410859
0.410972
0.410979
0.410976
0.410976
0.410976
0.508844
0.508844
0.508847
0.508841
0.508844
0.508749
0.509339
0.509521
0.509521
0.509521
0.509517
0.509521
0.606878
0.606882
0.606882
0.60688
0.606882
0.606786
0.607194
0.607396
0.607391
0.607396
0.607396
0.607392
0.703881
0.703881
0.703878
0.703884
0.703879
0.703901
0.703468
0.703481
0.703478
0.703484
0.703481
0.703481
0.798939
0.798934
0.798931
0.798941
0.798935
0.799363
0.797196
0.796394
0.796395
0.796389
0.796392
0.796395
0.891584
0.891587
0.891585
0.891585
0.891583
0.892965
0.888601
0.885959
0.885944
0.885925
0.885918
0.885899
0.983538
0.983531
0.983539
0.983534
0.983534
0.986092
1.08791
1.08613
1.08614
1.08614
1.08615
1.08615
1.0804
1.08038
1.08037
1.08035
1.08033
1.08329
1.19036
1.18959
1.18971
1.18982
1.1899
1.18997
1.30285
1.30254
1.30216
1.30172
1.30119
1.29908
1.40573
1.41151
1.41342
1.41501
1.41634
1.41744
1.53218
1.52924
1.5257
1.52146
1.51638
1.50632
1.59843
1.61597
1.62589
1.63417
1.64107
1.64682
1.72818
1.72151
1.71352
1.70393
1.69241
1.66964
1.70477
1.73265
1.74292
1.75148
1.75862
1.76457
1.76737
1.76119
1.75379
1.7449
1.73425
1.70509
1.70431
1.73391
1.74479
1.75387
1.76143
1.76774
1.79391
1.78583
1.77614
1.76451
1.75056
1.71512
1.71439
1.75018
1.76424
1.77595
1.78571
1.79385
1.79378
1.78563
1.77585
1.76411
1.75003
1.71403
1.71386
1.74996
1.76405
1.77579
1.78557
1.79372
1.79369
1.78553
1.77574
1.764
1.74991
1.71378
1.71374
1.74988
1.76397
1.77572
1.78551
1.79366
1.81821
1.80864
1.79716
1.78338
1.76685
1.72978
1.72976
1.76683
1.78337
1.79715
1.80863
1.8182
1.8182
1.80863
1.79714
1.78336
1.76682
1.72975
1.72974
1.76682
1.78336
1.79714
1.80862
1.81819
1.81819
1.80862
1.79713
1.78336