/*--------------------------------*- C++ -*----------------------------------*\
| =========                 |                                                 |
| \\      /  F ield         | OpenFOAM: The Open Source CFD Toolbox           |
|  \\    /   O peration     | Version:  2212                                  |
|   \\  /    A nd           | Website:  www.openfoam.com                      |
|    \\/     M anipulation  |                                                 |
\*---------------------------------------------------------------------------*/
FoamFile
{
    version     2.0;
    format      ascii;
    arch        "LSB;label=32;scalar=64";
    class       volScalarField;
    location    "300";
    object      p;
}
// * * * * * * * * * * * * * * * * * * * * * * * * * * * * * * * * * * * * * //

dimensions      [0 2 -2 0 0 0 0];

internalField   nonuniform List<scalar> 
228864
(
2.13791
2.15908
2.18109
2.19293
2.20279
2.21102
2.21787
2.27809
2.26934
2.25885
2.24627
2.23117
2.1967
2.19933
2.23266
2.24904
2.26269
2.27408
2.28357
2.29152
2.28237
2.27139
2.25822
2.24243
2.25228
2.26707
2.2794
2.28968
2.29825
2.29917
2.29052
2.28014
2.26769
2.25276
2.25315
2.2682
2.28075
2.29121
2.29994
2.30058
2.29179
2.28126
2.26863
2.25348
2.25375
2.26899
2.28169
2.29228
2.30111
2.30119
2.30067
2.30005
2.29931
2.29841
2.29003
2.29084
2.29152
2.29208
2.29255
2.28218
2.28177
2.28128
2.28069
2.27997
2.26791
2.2685
2.26899
2.2694
2.26974
2.25482
2.25456
2.25425
2.25387
2.25343
2.21756
2.21778
2.21797
2.21813
2.21826
2.15561
2.15557
2.15551
2.15545
2.15537
2.14937
2.15983
2.16485
2.16494
2.16502
2.16509
2.16515
2.14145
2.1414
2.14135
2.14129
2.14122
2.13894
2.16753
2.19109
2.20451
2.21571
2.22504
2.23283
2.23896
2.23964
2.24021
2.24068
2.24107
2.23331
2.23295
2.23252
2.23201
2.23139
2.22231
2.22286
2.22332
2.2237
2.22401
2.21285
2.21258
2.21226
2.21188
2.21142
2.19836
2.19872
2.19902
2.19927
2.19948
2.172
2.17188
2.17173
2.17156
2.17135
2.21446
2.21472
2.21495
2.21514
2.21529
2.20805
2.21098
2.24602
2.2621
2.27551
2.28669
2.29601
2.29349
2.28343
2.27135
2.25687
2.23949
2.20199
2.20156
2.24012
2.25787
2.27266
2.28499
2.29527
2.2976
2.28772
2.27587
2.26165
2.24459
2.25044
2.26601
2.27898
2.28979
2.29879
2.2995
2.29043
2.27954
2.26648
2.2508
2.2511
2.26687
2.28001
2.29096
2.30009
2.30057
2.2914
2.2804
2.26719
2.25135
2.25156
2.26747
2.28072
2.29177
2.30098
2.30093
2.29149
2.28018
2.2666
2.25031
2.25014
2.26638
2.27992
2.29121
2.30062
2.30025
2.29088
2.27963
2.26613
2.24993
2.24969
2.26582
2.27927
2.29047
2.29981
2.29928
2.28999
2.27884
2.26546
2.2494
2.24379
2.26119
2.27569
2.28777
2.29784
2.29522
2.28485
2.2724
2.25747
2.23956
2.20028
2.20639
2.21038
2.21056
2.21071
2.21083
2.21093
2.14841
2.14838
2.14835
2.14831
2.14826
2.14161
2.14437
2.15103
2.15109
2.15114
2.15118
2.15122
2.07436
2.07436
2.07435
2.07435
2.07434
2.06917
2.07465
2.07899
2.079
2.079
2.07901
2.07902
2.08216
2.08214
2.08211
2.08208
2.08204
2.07802
2.08797
2.09799
2.10537
2.11152
2.11666
2.12094
2.12164
2.12194
2.12219
2.1224
2.12257
2.11847
2.1183
2.11811
2.11787
2.11759
2.11274
2.11299
2.1132
2.11338
2.11352
2.1076
2.10747
2.10732
2.10714
2.10693
2.09995
2.10013
2.10027
2.1004
2.1005
2.09004
2.08999
2.08992
2.08983
2.08973
1.99478
1.99482
1.99485
1.99488
1.99491
1.99923
1.9992
1.99915
1.99909
1.99902
2.0013
2.00138
2.00145
2.00151
2.00155
2.00347
2.00342
2.00336
2.00329
2.0032
2.00479
2.00488
2.00496
2.00502
2.00508
2.00642
2.00636
2.00629
2.00621
2.00611
2.00586
2.00438
2.00259
2.00044
1.99787
1.99307
1.9907
1.99722
1.99994
2.00221
2.00411
2.00569
2.11893
2.11464
2.10949
2.10332
2.09592
2.08471
2.16205
2.18346
2.19664
2.20762
2.21678
2.22441
2.14476
2.16398
2.15331
2.13995
2.12707
2.14318
2.14617
2.14184
2.13779
2.1354
2.13413
2.19954
2.23931
2.25729
2.27228
2.28477
2.29518
2.29791
2.28777
2.2756
2.26099
2.24346
2.24903
2.26528
2.27882
2.2901
2.29951
2.29996
2.29052
2.27919
2.26559
2.24928
2.24949
2.26585
2.27949
2.29086
2.30033
2.30065
2.29115
2.27975
2.26607
2.24966
2.2498
2.26625
2.27996
2.29138
2.30091
2.3009
2.29134
2.27988
2.26612
2.24962
2.24948
2.26595
2.27967
2.29111
2.30065
2.30034
2.29084
2.27943
2.26574
2.24932
2.24912
2.2655
2.27914
2.29051
2.29999
2.29956
2.29012
2.27879
2.2652
2.24889
2.24336
2.26093
2.27557
2.28776
2.29793
2.29518
2.28475
2.27224
2.25723
2.23922
2.19924
2.20525
2.20913
2.20926
2.20937
2.20946
2.20954
2.14634
2.14632
2.1463
2.14627
2.14623
2.13953
2.14016
2.14681
2.14685
2.14688
2.14691
2.14693
2.06979
2.06978
2.06978
2.06978
2.06978
2.06456
2.06616
2.07137
2.07137
2.07138
2.07138
2.07138
1.98132
1.98132
1.98132
1.98132
1.98132
1.97732
1.97981
1.98372
1.98372
1.98372
1.98372
1.98372
1.9869
1.9869
1.98689
1.98689
1.98689
1.98312
1.98703
1.99033
1.99035
1.99036
1.99037
1.99037
1.88831
1.88831
1.88831
1.8883
1.8883
1.88637
1.88944
1.89137
1.89202
1.89256
1.89301
1.89338
1.8928
1.89282
1.89284
1.89286
1.89288
1.89259
1.89258
1.89256
1.89254
1.89252
1.89218
1.89221
1.89222
1.89224
1.89226
1.89186
1.89185
1.89183
1.89181
1.89178
1.8913
1.89132
1.89135
1.89137
1.89138
1.89011
1.89011
1.8901
1.89008
1.89007
1.78319
1.78319
1.78319
1.7832
1.7832
1.78299
1.78298
1.78297
1.78297
1.78296
1.78301
1.78302
1.78303
1.78303
1.78304
1.78308
1.78308
1.78307
1.78307
1.78306
1.78309
1.7831
1.78311
1.78311
1.78312
1.78314
1.78314
1.78314
1.78313
1.78312
1.78403
1.78398
1.78392
1.78384
1.78374
1.78337
1.78372
1.78506
1.78519
1.7853
1.7854
1.78547
1.8943
1.8939
1.89339
1.89279
1.89205
1.88871
1.8883
1.89256
1.89324
1.8938
1.89427
1.89465
2.00509
2.00359
2.00182
1.99969
1.99714
1.98954
2.08261
2.09446
2.10134
2.10708
2.11187
2.11585
2.1132
2.1092
2.10438
2.09861
2.09169
2.07875
2.15488
2.17705
2.18838
2.19781
2.20567
2.21222
2.27029
2.26219
2.25246
2.2408
2.2268
2.19313
2.19439
2.23241
2.24801
2.26101
2.27185
2.28088
2.28926
2.27972
2.26828
2.25455
2.23808
2.19881
2.19881
2.2385
2.25514
2.26901
2.28057
2.2902
2.29028
2.28056
2.26891
2.25492
2.23813
2.19785
2.19728
2.23798
2.25483
2.26888
2.28058
2.29033
2.29037
2.2806
2.26887
2.25481
2.23793
2.19702
2.19692
2.23791
2.2548
2.26888
2.28061
2.29038
2.29518
2.28475
2.27224
2.25722
2.23919
2.19911
2.20508
2.20894
2.20907
2.20918
2.20927
2.20935
2.24955
2.26608
2.27985
2.29132
2.30089
2.30064
2.2911
2.27964
2.2659
2.24941
2.24925
2.2657
2.2794
2.29083
2.30034
2.29999
2.2905
2.27912
2.26545
2.24906
2.24883
2.26516
2.27877
2.29011
2.29956
2.29793
2.28775
2.27555
2.26089
2.24331
2.24331
2.26089
2.27555
2.28776
2.29793
2.29956
2.29011
2.27876
2.26515
2.24881
2.24905
2.26544
2.27911
2.2905
2.29999
2.30035
2.29082
2.2794
2.26569
2.24924
2.2494
2.2659
2.27964
2.29109
2.30064
2.30089
2.29132
2.27984
2.26606
2.24953
2.20936
2.20928
2.20919
2.20908
2.20895
2.20508
2.13918
2.14593
2.14596
2.14599
2.14602
2.14604
2.14609
2.14607
2.14604
2.14601
2.14598
2.13926
2.06343
2.06867
2.06868
2.06868
2.06868
2.06868
2.06901
2.06901
2.06901
2.069
2.069
2.06377
1.97504
1.97905
1.97905
1.97905
1.97905
1.97905
1.97984
1.97984
1.97984
1.97984
1.97984
1.97583
1.87866
1.88158
1.88158
1.88158
1.88158
1.88158
1.88276
1.88276
1.88276
1.88276
1.88276
1.87985
1.88162
1.88444
1.88444
1.88444
1.88444
1.88444
1.8864
1.8864
1.8864
1.8864
1.8864
1.88385
1.78129
1.78283
1.78283
1.78283
1.78283
1.78283
1.78336
1.78335
1.78335
1.78335
1.78335
1.78249
1.67864
1.67887
1.67887
1.67887
1.67887
1.67887
1.67785
1.67785
1.67785
1.67784
1.67784
1.67711
1.67711
1.67711
1.67711
1.67712
1.67712
1.67712
1.67711
1.67711
1.67711
1.67711
1.67711
1.67712
1.67712
1.67712
1.67712
1.67712
1.67712
1.67712
1.67711
1.67711
1.67711
1.67712
1.67712
1.67712
1.57426
1.57426
1.57426
1.57426
1.57426
1.57425
1.57425
1.57426
1.57426
1.57426
1.57426
1.57426
1.57425
1.57425
1.57426
1.57425
1.57426
1.57426
1.57426
1.57426
1.57425
1.57425
1.57425
1.57425
1.57424
1.57498
1.57498
1.57498
1.57498
1.57498
1.57606
1.57606
1.57606
1.57606
1.57605
1.57611
1.57546
1.575
1.57501
1.57501
1.57501
1.57501
1.57625
1.57625
1.57624
1.57624
1.57624
1.57629
1.67915
1.67949
1.6795
1.67952
1.67953
1.67957
1.6805
1.68049
1.68048
1.68046
1.68044
1.67953
1.78382
1.7859
1.78603
1.78614
1.78622
1.7863
1.78681
1.78673
1.78663
1.78651
1.78637
1.78383
1.88773
1.8925
1.89323
1.89384
1.89435
1.89476
2.00425
2.0027
2.00086
1.99865
1.996
1.98783
1.98638
1.9952
1.99822
2.00075
2.00284
2.00461
2.11207
2.10772
2.1025
2.09625
2.08874
2.07533
2.14938
2.17116
2.18266
2.19224
2.20022
2.20686
2.26047
2.25268
2.24335
2.23214
2.2187
2.18623
2.18718
2.22347
2.2383
2.25065
2.26095
2.26953
2.27063
2.26177
2.25115
2.2384
2.22311
2.18616
2.1933
2.232
2.24807
2.26147
2.27263
2.28193
2.28212
2.27274
2.26147
2.24796
2.23175
2.19252
2.1921
2.23167
2.24793
2.26149
2.27279
2.28221
2.28225
2.27282
2.26151
2.24793
2.23164
2.1919
2.19182
2.23163
2.24793
2.26151
2.27283
2.28227
2.28227
2.27284
2.26151
2.24792
2.23162
2.19179
2.19689
2.2379
2.2548
2.26888
2.28061
2.29039
2.29518
2.28475
2.27224
2.25722
2.23919
2.19908
2.19908
2.23919
2.25722
2.27224
2.28476
2.29519
2.29793
2.28776
2.27555
2.26089
2.24331
2.24881
2.26515
2.27876
2.29011
2.29956
2.29999
2.2905
2.27911
2.26544
2.24905
2.24924
2.26569
2.2794
2.29082
2.30035
2.30064
2.29109
2.27964
2.2659
2.2494
2.24953
2.26606
2.27984
2.29132
2.30089
2.30089
2.29132
2.27984
2.26607
2.24953
2.2494
2.2659
2.27964
2.29109
2.30064
2.30035
2.29082
2.2794
2.26569
2.24924
2.24905
2.26545
2.27911
2.2905
2.29999
2.29956
2.29011
2.27876
2.26515
2.24882
2.24331
2.2609
2.27555
2.28776
2.29794
2.29519
2.28476
2.27224
2.25722
2.2392
2.19909
2.20509
2.20896
2.20909
2.2092
2.20929
2.20937
2.14606
2.14604
2.14601
2.14598
2.14595
2.13918
2.13917
2.14592
2.14596
2.14599
2.14602
2.14604
2.06855
2.06855
2.06855
2.06854
2.06854
2.06327
2.0633
2.06856
2.06857
2.06857
2.06857
2.06857
1.9785
1.9785
1.9785
1.9785
1.9785
1.97449
1.97466
1.97866
1.97866
1.97866
1.97866
1.97866
1.88049
1.88049
1.88049
1.88049
1.88049
1.8776
1.87797
1.88088
1.88088
1.88088
1.88088
1.88088
1.77937
1.77937
1.77937
1.77937
1.77937
1.77739
1.77794
1.77993
1.77993
1.77993
1.77993
1.77993
1.78076
1.78076
1.78076
1.78076
1.78076
1.77879
1.77996
1.78182
1.78182
1.78182
1.78182
1.78182
1.67875
1.67875
1.67875
1.67875
1.67875
1.67764
1.6783
1.67912
1.67912
1.67912
1.67912
1.67912
1.57654
1.57654
1.57654
1.57654
1.57654
1.57617
1.47524
1.47536
1.47536
1.47536
1.47536
1.47536
1.47491
1.47491
1.47491
1.47491
1.47491
1.47506
1.47445
1.47406
1.47406
1.47406
1.47406
1.47406
1.47352
1.47352
1.47352
1.47352
1.47352
1.47352
1.47352
1.47352
1.47352
1.47352
1.47351
1.47351
1.47351
1.47352
1.47352
1.47351
1.47351
1.47351
1.47351
1.47351
1.47352
1.47352
1.47352
1.47352
1.47352
1.47407
1.47407
1.47407
1.47407
1.47407
1.37452
1.37452
1.37452
1.37452
1.37452
1.37417
1.37417
1.37417
1.37417
1.37417
1.37418
1.37418
1.37418
1.37418
1.37418
1.37418
1.37418
1.37418
1.37417
1.37417
1.37418
1.37418
1.37418
1.37418
1.37418
1.37418
1.37418
1.37418
1.37418
1.37417
1.37451
1.37452
1.37452
1.37452
1.37451
1.37478
1.37523
1.37508
1.37508
1.37508
1.37509
1.37508
1.47496
1.47496
1.47497
1.47496
1.47496
1.47513
1.47551
1.4756
1.4756
1.4756
1.4756
1.4756
1.57709
1.57709
1.57708
1.57708
1.57708
1.57673
1.57704
1.57764
1.57763
1.57764
1.57764
1.57765
1.68111
1.6811
1.68108
1.68107
1.68105
1.67978
1.68023
1.68176
1.68179
1.68181
1.68182
1.68185
1.78763
1.78753
1.7874
1.78725
1.78706
1.78413
1.88752
1.89286
1.89372
1.89445
1.89504
1.89554
1.89752
1.89683
1.89602
1.89503
1.89385
1.88785
1.9858
1.99543
1.99919
2.00232
2.00493
2.00712
2.1144
2.10938
2.10335
2.09614
2.08749
2.07322
2.14453
2.16588
2.17769
2.18753
2.19572
2.20254
2.24863
2.24149
2.23293
2.22266
2.21034
2.17947
2.17993
2.21356
2.22685
2.23793
2.24716
2.25486
2.25579
2.24786
2.23833
2.22691
2.2132
2.17901
2.17845
2.21305
2.22688
2.23841
2.24801
2.25602
2.27086
2.26193
2.25121
2.23835
2.22293
2.1855
2.18516
2.22289
2.23836
2.25126
2.26201
2.27096
2.27101
2.26204
2.25128
2.23837
2.22287
2.18501
2.18494
2.22286
2.23836
2.25128
2.26205
2.27103
2.27103
2.26205
2.25128
2.23836
2.22285
2.18491
2.1849
2.22285
2.23836
2.25128
2.26205
2.27103
2.28227
2.27284
2.26151
2.24792
2.23162
2.19178
2.19688
2.2379
2.2548
2.26888
2.28061
2.29039
2.29039
2.28061
2.26888
2.2548
2.23791
2.19688
2.19689
2.23791
2.2548
2.26888
2.28061
2.29039
2.29519
2.28476
2.27224
2.25722
2.2392
2.19909
2.2051
2.20897
2.2091
2.20921
2.2093
2.20937
2.24953
2.26607
2.27984
2.29132
2.30089
2.30064
2.2911
2.27964
2.2659
2.2494
2.24925
2.26569
2.2794
2.29083
2.30035
2.29999
2.2905
2.27911
2.26545
2.24905
2.24882
2.26515
2.27876
2.29011
2.29956
2.29793
2.28776
2.27555
2.2609
2.24332
2.24332
2.2609
2.27555
2.28776
2.29794
2.29956
2.29011
2.27876
2.26515
2.24882
2.24905
2.26545
2.27911
2.2905
2.29999
2.30035
2.29083
2.2794
2.26569
2.24925
2.2494
2.2659
2.27964
2.2911
2.30064
2.30089
2.29132
2.27984
2.26607
2.24953
2.20938
2.2093
2.20921
2.20911
2.20897
2.2051
2.1392
2.14597
2.146
2.14603
2.14606
2.14608
2.14607
2.14605
2.14602
2.14599
2.14596
2.13919
2.06327
2.06856
2.06856
2.06856
2.06856
2.06857
2.06855
2.06855
2.06855
2.06855
2.06854
2.06327
1.9744
1.97841
1.97841
1.97841
1.97841
1.97841
1.97843
1.97843
1.97843
1.97843
1.97843
1.97442
1.87732
1.8802
1.8802
1.8802
1.8802
1.8802
1.8803
1.8803
1.8803
1.8803
1.8803
1.87741
1.77689
1.77883
1.77883
1.77883
1.77883
1.77883
1.77903
1.77903
1.77903
1.77903
1.77903
1.77707
1.67573
1.67695
1.67695
1.67695
1.67695
1.67695
1.67722
1.67722
1.67722
1.67722
1.67722
1.67598
1.67638
1.67763
1.67763
1.67763
1.67763
1.67763
1.67817
1.67817
1.67817
1.67817
1.67817
1.67694
1.57552
1.57619
1.57619
1.57619
1.57619
1.57619
1.57649
1.57649
1.57649
1.57649
1.57649
1.5759
1.47516
1.47542
1.47542
1.47542
1.47542
1.47542
1.37544
1.37544
1.37544
1.37544
1.37544
1.37535
1.37536
1.37537
1.37537
1.37537
1.37537
1.37537
1.37506
1.37506
1.37506
1.37506
1.37506
1.3752
1.27615
1.27604
1.27604
1.27604
1.27604
1.27604
1.27575
1.27575
1.27575
1.27575
1.27574
1.27555
1.27555
1.27555
1.27555
1.27555
1.27556
1.27556
1.27556
1.27555
1.27555
1.27556
1.27556
1.27556
1.27556
1.27556
1.27556
1.27556
1.27556
1.27556
1.27556
1.27556
1.27556
1.27556
1.27556
1.27556
1.17729
1.17728
1.17728
1.17728
1.17728
1.17728
1.17728
1.17728
1.17728
1.17728
1.17728
1.17728
1.17728
1.17728
1.17728
1.17728
1.17728
1.17728
1.17728
1.17728
1.17728
1.17728
1.17728
1.17728
1.17728
1.17736
1.17736
1.17736
1.17736
1.17736
1.17751
1.17751
1.17751
1.17751
1.17751
1.17757
1.17744
1.17736
1.17736
1.17737
1.17736
1.17736
1.17752
1.17751
1.17752
1.17751
1.17751
1.17758
1.27616
1.27606
1.27605
1.27606
1.27605
1.27606
1.27629
1.2763
1.2763
1.2763
1.2763
1.27633
1.3755
1.3755
1.3755
1.3755
1.3755
1.3755
1.37579
1.37579
1.37579
1.37579
1.37579
1.3757
1.47577
1.47603
1.47603
1.47603
1.47603
1.47603
1.47646
1.47645
1.47646
1.47646
1.47646
1.4761
1.57746
1.57822
1.57822
1.57822
1.57824
1.57823
1.57911
1.57911
1.5791
1.5791
1.57909
1.57817
1.68108
1.68288
1.68293
1.68297
1.683
1.68304
1.78916
1.78902
1.78882
1.7886
1.78833
1.78495
1.78619
1.79015
1.79059
1.79096
1.79127
1.79152
1.90052
1.89953
1.89836
1.89693
1.89523
1.88839
1.98529
1.99604
2.00099
2.00511
2.00856
2.01143
2.12428
2.11833
2.11119
2.10263
2.09236
2.07424
2.14244
2.16577
2.17783
2.18787
2.19624
2.20322
2.23617
2.23009
2.22278
2.21402
2.20351
2.1755
2.17547
2.20459
2.21547
2.22454
2.2321
2.23839
2.23876
2.23232
2.2246
2.21533
2.20421
2.17466
2.17416
2.20407
2.21528
2.22462
2.2324
2.23889
2.23895
2.23244
2.22464
2.21527
2.20404
2.17391
2.17816
2.21302
2.22689
2.23845
2.24808
2.25611
2.25614
2.24811
2.23847
2.22689
2.21301
2.17803
2.17797
2.21299
2.22689
2.23847
2.24811
2.25616
2.25616
2.24811
2.23846
2.22688
2.21298
2.17795
2.17793
2.21297
2.22687
2.23845
2.24811
2.25615
2.25615
2.24811
2.23845
2.22687
2.21297
2.17793
2.18489
2.22284
2.23835
2.25128
2.26205
2.27103
2.28227
2.27284
2.26151
2.24792
2.23162
2.19178
2.19178
2.23162
2.24792
2.26151
2.27284
2.28227
2.28227
2.27284
2.26151
2.24792
2.23162
2.19178
2.19689
2.23791
2.2548
2.26888
2.28062
2.29039
2.29519
2.28476
2.27225
2.25723
2.2392
2.1991
2.1991
2.2392
2.25723
2.27225
2.28476
2.29519
2.29794
2.28776
2.27555
2.2609
2.24332
2.24882
2.26515
2.27876
2.29011
2.29956
2.29999
2.2905
2.27911
2.26545
2.24905
2.24925
2.26569
2.2794
2.29083
2.30035
2.30064
2.2911
2.27964
2.2659
2.2494
2.24953
2.26607
2.27984
2.29132
2.30089
2.30089
2.29132
2.27984
2.26607
2.24953
2.2494
2.2659
2.27964
2.2911
2.30064
2.30035
2.29083
2.2794
2.26569
2.24925
2.24905
2.26545
2.27911
2.2905
2.29999
2.29956
2.29011
2.27876
2.26515
2.24882
2.24332
2.2609
2.27555
2.28776
2.29794
2.29519
2.28476
2.27225
2.25723
2.23921
2.1991
2.20511
2.20898
2.20911
2.20922
2.20931
2.20938
2.14608
2.14606
2.14604
2.14601
2.14597
2.13921
2.1392
2.14597
2.14601
2.14604
2.14606
2.14608
2.06858
2.06858
2.06857
2.06857
2.06857
2.06328
2.06328
2.06856
2.06857
2.06857
2.06857
2.06857
1.97841
1.97841
1.97841
1.97841
1.97841
1.9744
1.9744
1.97841
1.97841
1.97841
1.97841
1.97841
1.88014
1.88014
1.88014
1.88014
1.88014
1.87727
1.87728
1.88016
1.88016
1.88016
1.88016
1.88016
1.77867
1.77867
1.77867
1.77867
1.77867
1.77675
1.77679
1.77873
1.77873
1.77873
1.77873
1.77873
1.67667
1.67667
1.67667
1.67667
1.67667
1.67548
1.67557
1.67677
1.67677
1.67677
1.67677
1.67677
1.57525
1.57525
1.57525
1.57525
1.57525
1.5746
1.57472
1.57538
1.57538
1.57538
1.57538
1.57538
1.57559
1.57559
1.57559
1.57559
1.57559
1.5749
1.57517
1.57586
1.57586
1.57586
1.57586
1.57586
1.47508
1.47508
1.47508
1.47508
1.47508
1.47475
1.47496
1.47527
1.47527
1.47527
1.47528
1.47527
1.37538
1.37538
1.37538
1.37538
1.37538
1.37526
1.27622
1.27626
1.27626
1.27626
1.27626
1.27626
1.27628
1.27628
1.27628
1.27628
1.27628
1.27626
1.27625
1.27623
1.27623
1.27623
1.27623
1.27623
1.1776
1.1776
1.1776
1.1776
1.1776
1.17763
1.07928
1.07927
1.07927
1.07927
1.07927
1.07927
1.07922
1.07922
1.07922
1.07922
1.07922
1.07925
1.07919
1.07916
1.07916
1.07916
1.07916
1.07916
1.07913
1.07913
1.07914
1.07914
1.07914
1.07914
1.07914
1.07914
1.07913
1.07913
1.07913
1.07913
1.07913
1.07913
1.07914
1.07913
1.07913
1.07913
1.07913
1.07913
1.07913
1.07913
1.07913
1.07913
1.07913
1.07916
1.07916
1.07916
1.07916
1.07916
0.981026
0.981027
0.981027
0.981027
0.981027
0.981018
0.981018
0.981018
0.981018
0.981017
0.981018
0.981019
0.98102
0.98102
0.98102
0.981021
0.981021
0.981021
0.98102
0.981019
0.981019
0.98102
0.981021
0.981022
0.981022
0.981022
0.981022
0.981022
0.981021
0.981019
0.981023
0.981023
0.981022
0.981021
0.981019
0.981032
0.981044
0.981034
0.981034
0.981034
0.981035
0.981035
1.07922
1.07922
1.07922
1.07922
1.07922
1.07925
1.07929
1.07927
1.07927
1.07927
1.07927
1.07927
1.17764
1.17764
1.17764
1.17764
1.17764
1.17767
1.17774
1.17773
1.17773
1.17773
1.17773
1.17773
1.27648
1.27648
1.27648
1.27648
1.27648
1.27646
1.27661
1.27666
1.27666
1.27666
1.27665
1.27666
1.37607
1.37608
1.37608
1.37608
1.37608
1.37594
1.3763
1.37649
1.37649
1.37649
1.3765
1.37649
1.47708
1.47708
1.47708
1.47708
1.47708
1.47663
1.47747
1.47803
1.47803
1.47803
1.47804
1.47804
1.58046
1.58046
1.58044
1.58044
1.58042
1.57929
1.68242
1.68459
1.68467
1.68475
1.6848
1.68486
1.68741
1.68732
1.68721
1.68707
1.68691
1.68424
1.78773
1.79249
1.7932
1.7938
1.79429
1.79471
1.90411
1.90268
1.90097
1.89891
1.89645
1.88857
1.98288
1.9949
2.00124
2.00653
2.01094
2.01462
2.12358
2.11712
2.10939
2.10009
2.08894
2.068
2.10953
2.14131
2.15564
2.16759
2.17755
2.18585
2.21168
2.20429
2.19543
2.18483
2.17214
2.14585
2.14567
2.17406
2.18747
2.19868
2.20802
2.21583
2.21584
2.20783
2.19824
2.18672
2.1729
2.14431
2.14361
2.17256
2.18649
2.19809
2.20776
2.21582
2.21581
2.20774
2.19805
2.18641
2.17245
2.14328
2.14314
2.17241
2.18638
2.19802
2.20772
2.2158
2.23896
2.23245
2.22464
2.21527
2.20402
2.17381
2.17375
2.204
2.21526
2.22464
2.23245
2.23896
2.23896
2.23244
2.22463
2.21524
2.20399
2.17373
2.17371
2.20398
2.21524
2.22462
2.23244
2.23895
2.23895
2.23243
2.22461
2.21523
2.20397
2.1737
2.1737
2.20397
2.21523
2.22461
2.23243
2.23894
2.25615
2.2481
2.23845
2.22687
2.21297
2.17792
2.18489
2.22284
2.23835
2.25128
2.26205
2.27103
2.27103
2.26205
2.25128
2.23835
2.22284
2.18489
2.18489
2.22284
2.23835
2.25128
2.26205
2.27103
2.28227
2.27284
2.26151
2.24792
2.23162
2.19178
2.19689
2.23791
2.2548
2.26888
2.28062
2.29039
2.29039
2.28062
2.26888
2.2548
2.23791
2.19689
2.19689
2.23791
2.2548
2.26888
2.28062
2.29039
2.29519
2.28476
2.27225
2.25723
2.23921
2.1991
2.20511
2.20898
2.20911
2.20922
2.20931
2.20938
2.24953
2.26607
2.27984
2.29132
2.30089
2.30064
2.2911
2.27964
2.2659
2.2494
2.24925
2.26569
2.2794
2.29083
2.30035
2.29999
2.2905
2.27911
2.26545
2.24905
2.24882
2.26515
2.27876
2.29011
2.29956
2.29794
2.28776
2.27555
2.2609
2.24332
2.24332
2.2609
2.27555
2.28776
2.29794
2.29956
2.29011
2.27876
2.26515
2.24882
2.24905
2.26545
2.27911
2.2905
2.29999
2.30035
2.29083
2.2794
2.26569
2.24925
2.2494
2.2659
2.27964
2.2911
2.30064
2.30089
2.29132
2.27984
2.26607
2.24953
2.20938
2.20931
2.20922
2.20911
2.20898
2.20511
2.13921
2.14597
2.14601
2.14604
2.14606
2.14609
2.14609
2.14606
2.14604
2.14601
2.14597
2.13921
2.06329
2.06857
2.06857
2.06858
2.06858
2.06858
2.06858
2.06858
2.06857
2.06857
2.06857
2.06329
1.9744
1.97841
1.97841
1.97841
1.97841
1.97841
1.97841
1.97841
1.97841
1.97841
1.97841
1.9744
1.87726
1.88013
1.88013
1.88013
1.88013
1.88013
1.88013
1.88013
1.88013
1.88013
1.88013
1.87726
1.77671
1.77863
1.77863
1.77863
1.77863
1.77863
1.77865
1.77865
1.77865
1.77865
1.77865
1.77672
1.67541
1.67659
1.67659
1.67659
1.67659
1.67659
1.67661
1.67661
1.67661
1.67661
1.67661
1.67543
1.57449
1.57512
1.57512
1.57512
1.57512
1.57512
1.57517
1.57517
1.57517
1.57517
1.57517
1.57453
1.47433
1.47462
1.47462
1.47462
1.47462
1.47462
1.47468
1.47468
1.47468
1.47468
1.47468
1.47438
1.47446
1.47477
1.47477
1.47477
1.47477
1.47477
1.47491
1.47491
1.47491
1.47491
1.47491
1.47459
1.37504
1.37517
1.37517
1.37517
1.37517
1.37517
1.37527
1.37527
1.37527
1.37527
1.37527
1.37514
1.27616
1.2762
1.2762
1.2762
1.2762
1.2762
1.1776
1.1776
1.1776
1.1776
1.1776
1.1776
1.17762
1.17763
1.17763
1.17763
1.17763
1.17763
1.17764
1.17764
1.17764
1.17764
1.17764
1.17764
1.07929
1.07928
1.07928
1.07928
1.07928
1.07928
0.981068
0.981068
0.981068
0.981068
0.981068
0.981072
0.981068
0.981061
0.981061
0.981061
0.981061
0.981061
0.981045
0.981045
0.981045
0.981045
0.981045
0.981054
0.882912
0.882917
0.882917
0.882917
0.882917
0.882917
0.882912
0.882912
0.882912
0.882912
0.882912
0.882912
0.882913
0.882913
0.882913
0.882913
0.882915
0.882915
0.882914
0.882914
0.882913
0.882914
0.882915
0.882915
0.882915
0.882915
0.882916
0.882916
0.882915
0.882915
0.882914
0.882914
0.882915
0.882916
0.882916
0.882916
0.784812
0.784811
0.784811
0.784811
0.78481
0.78481
0.784811
0.784811
0.784811
0.784811
0.784811
0.784811
0.784811
0.784811
0.78481
0.78481
0.78481
0.78481
0.784811
0.784811
0.78481
0.78481
0.78481
0.784809
0.784809
0.784807
0.784807
0.784807
0.784807
0.784807
0.784808
0.784807
0.784808
0.784807
0.784807
0.784789
0.784789
0.78479
0.784795
0.78479
0.784793
0.784793
0.784747
0.784747
0.784742
0.78475
0.784745
0.784742
0.882889
0.882891
0.882887
0.882889
0.882893
0.882885
0.882847
0.882855
0.882851
0.882851
0.882851
0.88285
0.981044
0.981035
0.981038
0.981038
0.981038
0.981038
0.981021
0.981021
0.981021
0.981021
0.981018
0.981027
1.07931
1.07931
1.0793
1.0793
1.0793
1.0793
1.07933
1.07933
1.07933
1.07933
1.07934
1.07934
1.17783
1.17783
1.17783
1.17783
1.17783
1.17783
1.17797
1.17797
1.17797
1.17797
1.17797
1.17796
1.27685
1.27691
1.27691
1.27692
1.27691
1.27692
1.27732
1.27732
1.27732
1.27732
1.27732
1.27722
1.37688
1.37714
1.37713
1.37714
1.37714
1.37714
1.37811
1.3781
1.37811
1.3781
1.37811
1.37775
1.47869
1.47943
1.47943
1.47944
1.47945
1.47944
1.58241
1.58239
1.58237
1.58235
1.58231
1.58088
1.58299
1.58486
1.58493
1.58498
1.58502
1.58507
1.69081
1.69063
1.69042
1.69016
1.68985
1.68646
1.78928
1.79511
1.79629
1.79729
1.79812
1.7988
1.90844
1.90638
1.90389
1.90092
1.89735
1.88822
1.9786
1.9921
2.00013
2.00683
2.01241
2.01707
2.11
2.10345
2.09559
2.08615
2.07481
2.05371
2.09113
2.12256
2.13505
2.14546
2.15414
2.16137
2.16845
2.1606
2.15119
2.1399
2.12635
2.09157
2.10802
2.14389
2.15977
2.17299
2.18402
2.19321
2.19334
2.18387
2.17251
2.15888
2.14252
2.10626
2.10537
2.14203
2.15851
2.17225
2.1837
2.19324
2.19319
2.18362
2.17215
2.15839
2.14187
2.10497
2.10479
2.1418
2.15833
2.1721
2.18358
2.19314
2.19311
2.18354
2.17206
2.15829
2.14175
2.1047
2.14308
2.17238
2.18635
2.198
2.2077
2.21578
2.21577
2.20768
2.19798
2.18633
2.17235
2.14304
2.14302
2.17234
2.18632
2.19797
2.20767
2.21576
2.21575
2.20767
2.19796
2.18631
2.17233
2.14301
2.14301
2.17232
2.18631
2.19796
2.20766
2.21575
2.21575
2.20766
2.19795
2.18631
2.17232
2.143
2.1737
2.20397
2.21523
2.22461
2.23243
2.23894
2.25615
2.2481
2.23845
2.22687
2.21297
2.17792
2.17792
2.21297
2.22687
2.23845
2.2481
2.25615
2.25615
2.2481
2.23845
2.22687
2.21297
2.17792
2.18489
2.22284
2.23835
2.25128
2.26205
2.27103
2.28227
2.27284
2.26151
2.24792
2.23162
2.19178
2.19178
2.23162
2.24792
2.26151
2.27284
2.28227
2.28227
2.27284
2.26151
2.24792
2.23162
2.19178
2.19689
2.23791
2.2548
2.26888
2.28062
2.29039
2.29519
2.28476
2.27225
2.25723
2.23921
2.1991
2.1991
2.23921
2.25723
2.27225
2.28476
2.29519
2.29794
2.28776
2.27555
2.2609
2.24332
2.24882
2.26515
2.27876
2.29011
2.29956
2.29999
2.2905
2.27911
2.26545
2.24905
2.24925
2.26569
2.2794
2.29083
2.30035
2.30064
2.2911
2.27964
2.2659
2.2494
2.24953
2.26607
2.27984
2.29132
2.30089
2.30089
2.30064
2.30035
2.29999
2.29956
2.29011
2.2905
2.29083
2.2911
2.29132
2.27984
2.27964
2.2794
2.27911
2.27876
2.26515
2.26545
2.26569
2.2659
2.26607
2.24953
2.2494
2.24925
2.24905
2.24882
2.20898
2.20911
2.20922
2.20931
2.20938
2.14609
2.14606
2.14604
2.14601
2.14597
2.13921
2.13921
2.14597
2.14601
2.14604
2.14606
2.14609
2.06858
2.06858
2.06858
2.06857
2.06857
2.06329
2.06329
2.06857
2.06857
2.06858
2.06858
2.06858
1.97841
1.97841
1.97841
1.97841
1.97841
1.9744
1.9744
1.97841
1.97841
1.97841
1.97841
1.97841
1.88013
1.88013
1.88013
1.88013
1.88013
1.87726
1.87726
1.88013
1.88013
1.88013
1.88013
1.88013
1.77863
1.77863
1.77863
1.77863
1.77863
1.77671
1.77671
1.77863
1.77863
1.77863
1.77863
1.77863
1.67657
1.67657
1.67657
1.67657
1.67657
1.67539
1.6754
1.67657
1.67657
1.67657
1.67657
1.67657
1.57508
1.57508
1.57508
1.57508
1.57508
1.57445
1.57446
1.57509
1.57509
1.57509
1.57509
1.57509
1.47456
1.47456
1.47456
1.47456
1.47456
1.47428
1.47429
1.47458
1.47458
1.47458
1.47458
1.47458
1.37496
1.37496
1.37496
1.37496
1.37496
1.37486
1.37488
1.37499
1.37499
1.37499
1.37499
1.37499
1.37503
1.37503
1.37503
1.37503
1.37503
1.37492
1.37497
1.37508
1.37508
1.37508
1.37508
1.37508
1.27609
1.27609
1.27609
1.27609
1.27609
1.27606
1.27611
1.27614
1.27614
1.27614
1.27614
1.27614
1.17757
1.17757
1.17757
1.17757
1.17757
1.17757
1.07926
1.07925
1.07925
1.07925
1.07925
1.07925
1.07926
1.07927
1.07926
1.07926
1.07926
1.07927
1.07928
1.07927
1.07927
1.07927
1.07927
1.07927
0.981065
0.981065
0.981065
0.981065
0.981065
0.98107
0.882925
0.882923
0.882923
0.882923
0.882923
0.882923
0.882924
0.882924
0.882924
0.882924
0.882924
0.882924
0.88292
0.882922
0.882922
0.882923
0.882922
0.882923
0.78481
0.78481
0.78481
0.78481
0.78481
0.784796
0.686682
0.686703
0.686703
0.686703
0.686703
0.686703
0.686703
0.686703
0.686703
0.686703
0.686703
0.686671
0.686671
0.686675
0.686673
0.686675
0.686679
0.686671
0.686707
0.686708
0.686708
0.686708
0.686708
0.686708
0.686708
0.686708
0.686708
0.686707
0.686707
0.686708
0.686708
0.686708
0.686708
0.686708
0.686708
0.686707
0.686707
0.686707
0.686707
0.686707
0.686707
0.686707
0.686707
0.686704
0.686704
0.686704
0.686704
0.686704
0.588602
0.588602
0.588602
0.588602
0.588602
0.588605
0.588605
0.588605
0.588605
0.588604
0.588605
0.588605
0.588605
0.588605
0.588605
0.588605
0.588605
0.588605
0.588605
0.588605
0.588605
0.588605
0.588605
0.588605
0.588606
0.588606
0.588606
0.588605
0.588605
0.588605
0.588554
0.588551
0.588554
0.588554
0.588552
0.588552
0.588425
0.588426
0.588428
0.588428
0.588422
0.588428
0.686591
0.686598
0.686595
0.686592
0.686593
0.686589
0.686451
0.686448
0.68645
0.68645
0.68645
0.68645
0.784664
0.784664
0.784661
0.784664
0.784664
0.784662
0.784526
0.784522
0.78452
0.78452
0.78452
0.784521
0.88278
0.88278
0.88278
0.882783
0.882778
0.882784
0.882681
0.882667
0.882677
0.882672
0.882672
0.882672
0.98099
0.98099
0.98099
0.98099
0.980992
0.980995
0.980963
0.980957
0.980953
0.980953
0.980953
0.980953
1.07939
1.07939
1.07938
1.07938
1.07939
1.07939
1.07949
1.07949
1.07949
1.07949
1.07949
1.07949
1.17821
1.1782
1.17821
1.17821
1.17821
1.17818
1.17854
1.17859
1.17859
1.17859
1.17859
1.1786
1.27796
1.27796
1.27796
1.27796
1.27796
1.2778
1.27868
1.27893
1.27893
1.27892
1.27893
1.27892
1.37953
1.37952
1.37953
1.37952
1.37953
1.37901
1.48039
1.4814
1.48141
1.48142
1.48143
1.48143
1.48417
1.48414
1.48413
1.48411
1.48408
1.48266
1.58561
1.58814
1.58828
1.5884
1.5885
1.5886
1.69515
1.69481
1.69439
1.69389
1.6933
1.68891
1.79043
1.79757
1.79959
1.80128
1.80269
1.80386
1.91397
1.91094
1.90729
1.90293
1.89769
1.88695
1.97622
1.99389
2.00393
2.0123
2.01929
2.02511
2.10443
2.09774
2.08972
2.0801
2.06855
2.04589
2.08031
2.108
2.11825
2.1268
2.13392
2.13986
2.14239
2.13623
2.12884
2.11997
2.10933
2.08035
2.07939
2.10887
2.11975
2.12882
2.13638
2.14268
2.16884
2.16076
2.15107
2.13944
2.12549
2.09016
2.08934
2.12508
2.13913
2.15085
2.16061
2.16874
2.16866
2.16051
2.15073
2.139
2.12492
2.08894
2.08875
2.12484
2.13893
2.15067
2.16045
2.16861
2.16857
2.16041
2.15062
2.13888
2.12479
2.08867
2.08862
2.12476
2.13885
2.1506
2.16038
2.16854
2.19309
2.18352
2.17204
2.15826
2.14172
2.10466
2.10464
2.14171
2.15824
2.17203
2.18351
2.19308
2.19307
2.1835
2.17202
2.15824
2.1417
2.10463
2.10462
2.1417
2.15823
2.17201
2.1835
2.19307
2.19307
2.1835
2.17201
2.15823
2.14169
2.10462
2.10462
2.14169
2.15823
2.17201
2.1835
2.19306
2.21575
2.20766
2.19795
2.18631
2.17232
2.143
2.17369
2.20397
2.21523
2.22461
2.23243
2.23894
2.23894
2.23243
2.22461
2.21523
2.20397
2.17369
2.17369
2.20397
2.21523
2.22461
2.23243
2.23894
2.25615
2.2481
2.23845
2.22687
2.21297
2.17792
2.18489
2.22284
2.23835
2.25128
2.26205
2.27103
2.27103
2.26205
2.25128
2.23835
2.22284
2.18489
2.18489
2.22284
2.23835
2.25128
2.26205
2.27103