/*--------------------------------*- C++ -*----------------------------------*\
| =========                 |                                                 |
| \\      /  F ield         | OpenFOAM: The Open Source CFD Toolbox           |
|  \\    /   O peration     | Version:  2212                                  |
|   \\  /    A nd           | Website:  www.openfoam.com                      |
|    \\/     M anipulation  |                                                 |
\*---------------------------------------------------------------------------*/
FoamFile
{
    version     2.0;
    format      ascii;
    arch        "LSB;label=32;scalar=64";
    class       volScalarField;
    location    "300";
    object      p;
}
// * * * * * * * * * * * * * * * * * * * * * * * * * * * * * * * * * * * * * //

dimensions      [0 2 -2 0 0 0 0];

internalField   nonuniform List<scalar> 
248319
(
0
0.0192807
0.04027
0.0499119
0.0579516
0.0646543
0.070248
0.109359
0.103293
0.0960198
0.0872975
0.0768384
0.0510494
0.0498378
0.0761406
0.087274
0.0965702
0.104328
0.110799
0.0812599
0.0763901
0.0706017
0.0636738
0.0553478
0.0330956
0.0137211
0.0280082
0.0342209
0.0395208
0.0440854
0.0480592
0.0626211
0.0577835
0.0519861
0.0450475
0.0367391
0.0196805
-0.0539518
-0.0471955
-0.0434509
-0.0403274
-0.0377069
-0.0355311
-0.0212307
-0.0246984
-0.028857
-0.0338348
-0.0398001
-0.0507611
-0.055547
-0.0402199
-0.0334776
-0.0278625
-0.0231821
-0.0192655
0.0634661
0.0574266
0.0501781
0.0414871
0.0310657
0.000542593
0.0309082
0.0593114
0.0692838
0.0775982
0.0845261
0.0903052
0.100136
0.0944894
0.0877144
0.0795874
0.0698438
0.0359029
0.0499512
0.0749742
0.0847373
0.0928745
0.0996584
0.105313
0.109529
0.103005
0.0951843
0.0858079
0.0745685
0.0473146
0.0190782
0.0397502
0.046377
0.0519033
0.056586
0.0606348
-0.0356287
-0.0383591
-0.0410892
-0.0438174
-0.0465474
-0.0535706
-0.0515018
-0.043854
-0.0414657
-0.0392253
-0.0370873
-0.0350228
-0.140384
-0.140794
-0.141184
-0.141553
-0.141892
-0.145267
-0.14483
-0.141954
-0.140974
-0.14016
-0.139479
-0.138907
-0.132515
-0.133793
-0.135338
-0.137177
-0.139386
-0.144444
-0.145908
-0.139379
-0.136706
-0.134478
-0.132608
-0.131067
-0.133989
-0.135627
-0.137605
-0.139965
-0.142809
-0.150194
-0.0695821
-0.05258
-0.0457597
-0.040074
-0.0353408
-0.0313785
0.0473152
0.0406948
0.0327541
0.0232232
0.0117967
-0.0194646
-0.00916038
0.0315405
0.0452766
0.0567298
0.0662805
0.0742429
0.0901742
0.083369
0.0752082
0.0654168
0.0536739
0.0104131
0.00965474
0.052314
0.0641518
0.0740186
0.0822419
0.0890981
0.0978794
0.0922983
0.0856013
0.0775643
0.0679222
0.0344794
0.0489431
0.073521
0.0833195
0.0914836
0.0982869
0.103954
0.109476
0.102781
0.0947545
0.0851317
0.0735951
0.0456358
0.0147862
0.0354125
0.0421979
0.0479108
0.0527925
0.0570388
-0.0392359
-0.0419519
-0.0446698
-0.0473881
-0.0501089
-0.0586925
-0.147624
-0.143315
-0.142597
-0.141878
-0.141161
-0.140442
-0.139441
-0.140144
-0.140844
-0.141543
-0.142242
-0.146189
-0.244003
-0.242355
-0.242282
-0.242209
-0.242136
-0.242062
-0.242967
-0.242955
-0.242921
-0.24286
-0.242763
-0.24376
-0.243301
-0.242398
-0.242273
-0.242166
-0.242082
-0.242015
-0.238681
-0.239003
-0.239384
-0.239849
-0.240401
-0.242613
-0.242868
-0.239815
-0.239095
-0.238492
-0.237993
-0.237567
-0.238125
-0.238593
-0.239157
-0.239825
-0.240626
-0.244231
-0.245661
-0.241501
-0.240524
-0.239716
-0.239031
-0.238473
-0.136218
-0.138062
-0.140279
-0.142935
-0.146123
-0.154321
-0.0773938
-0.0596782
-0.0525244
-0.0465589
-0.0415938
-0.0374475
0.0342212
0.0274439
0.01931
0.00954582
-0.00215591
-0.0328423
-0.0252825
0.0126342
0.0266655
0.0383643
0.0481176
0.0562451
0.056822
0.0485542
0.0386311
0.0267273
0.0124466
-0.024733
-0.00913317
0.0306853
0.0447067
0.0563932
0.0661355
0.0742565
0.0739265
0.0657247
0.0558836
0.0440778
0.0299083
-0.00976235
0.0087227
0.0514092
0.0634089
0.0734062
0.0817387
0.0886835
0.0975752
0.0919158
0.0851266
0.0769779
0.0672015
0.0335547
0.0480721
0.0729851
0.0829136
0.0911867
0.0980819
0.103825
0.109426
0.10262
0.0944569
0.0846713
0.0729386
0.0445334
0.0132911
0.0339992
0.040972
0.0468587
0.0518989
0.0562858
-0.0407168
-0.0434401
-0.0461628
-0.0488856
-0.05161
-0.0603964
-0.148684
-0.144128
-0.143452
-0.142776
-0.142101
-0.141426
-0.242714
-0.24279
-0.242866
-0.242944
-0.24302
-0.24511
-0.24449
-0.242466
-0.242393
-0.242321
-0.242249
-0.242175
-0.343427
-0.343425
-0.343423
-0.343422
-0.343419
-0.3442
-0.343965
-0.343399
-0.34342
-0.343441
-0.343462
-0.343483
-0.344216
-0.344164
-0.344099
-0.344022
-0.343926
-0.344016
-0.343694
-0.343602
-0.343657
-0.343708
-0.343748
-0.343783
-0.341964
-0.342011
-0.342064
-0.342132
-0.342213
-0.34304
-0.342995
-0.341738
-0.341609
-0.341496
-0.341408
-0.341341
-0.341481
-0.341563
-0.341673
-0.341807
-0.341959
-0.343485
-0.343959
-0.342141
-0.341953
-0.341788
-0.341657
-0.341545
-0.340747
-0.340942
-0.341158
-0.341429
-0.341749
-0.344001
-0.246045
-0.241075
-0.239697
-0.238552
-0.237589
-0.236803
-0.134502
-0.136819
-0.139607
-0.142947
-0.146949
-0.15621
-0.0818267
-0.0633049
-0.055339
-0.0486953
-0.0431733
-0.0385512
0.023983
0.0175041
0.00972703
0.000395295
-0.0107898
-0.040499
-0.0341712
0.00128199
0.0135972
0.023866
0.0324263
0.0395597
0.0405658
0.0333943
0.0247891
0.014465
0.00208051
-0.0330928
-0.032913
0.00218943
0.0145611
0.0248726
0.0334677
0.0406288
0.0567203
0.0484168
0.0384524
0.0264996
0.0121569
-0.0248793
-0.0250507
0.0120426
0.0263858
0.0383376
0.0482982
0.0565976
0.07373
0.0655169
0.0556608
0.0438314
0.0296394
-0.0101137
0.00827351
0.0511131
0.0631495
0.0731748
0.0815335
0.0884966
0.0974504
0.0917715
0.08496
0.0767842
0.0669701
0.0331464
0.0476874
0.0727827
0.0827529
0.0910592
0.0979821
0.103749
0.109382
0.10253
0.0943126
0.0844603
0.0726491
0.0440641
0.012736
0.0335602
0.0406017
0.0465478
0.05164
0.0560684
-0.0412001
-0.0439192
-0.0466373
-0.0493562
-0.0520767
-0.0610043
-0.149292
-0.144728
-0.144048
-0.143368
-0.142687
-0.142008
-0.243176
-0.243252
-0.243329
-0.243407
-0.243483
-0.245562
-0.344858
-0.344032
-0.344031
-0.344031
-0.344031
-0.344031
-0.34371
-0.34371
-0.343711
-0.343711
-0.343712
-0.344548
-0.444331
-0.444004
-0.444003
-0.444003
-0.444002
-0.444002
-0.443838
-0.443837
-0.443837
-0.443836
-0.443834
-0.444122
-0.444028
-0.443871
-0.443884
-0.443898
-0.443912
-0.443925
-0.444479
-0.444449
-0.44441
-0.444363
-0.444308
-0.444161
-0.444025
-0.444163
-0.444222
-0.444276
-0.444321
-0.444355
-0.443422
-0.443421
-0.443416
-0.44341
-0.443405
-0.443662
-0.443741
-0.443294
-0.443291
-0.443276
-0.443273
-0.443257
-0.443615
-0.443637
-0.443634
-0.443655
-0.443671
-0.444183
-0.444749
-0.444207
-0.444172
-0.444156
-0.444146
-0.444124
-0.444411
-0.444436
-0.444472
-0.444507
-0.444563
-0.445187
-0.445385
-0.444563
-0.444446
-0.444344
-0.444269
-0.444205
-0.338867
-0.339234
-0.339655
-0.340169
-0.340784
-0.343677
-0.245831
-0.239641
-0.23746
-0.235641
-0.234114
-0.232855
-0.124298
-0.12755
-0.131464
-0.136159
-0.141795
-0.15469
-0.0824995
-0.0606235
-0.0513486
-0.0436134
-0.037182
-0.0317961
0.0161858
0.00998244
0.00254042
-0.00638867
-0.0170989
-0.0445909
-0.0407028
-0.0115096
-0.00120181
0.00739446
0.0145563
0.0205298
0.0212613
0.0153412
0.00824011
-0.000282758
-0.0105048
-0.0395441
-0.0393231
-0.0103398
-0.000140224
0.00836183
0.0154456
0.0213521
0.0213255
0.015422
0.00834643
-0.000148637
-0.0103463
-0.0393592
-0.0329693
0.00217842
0.0145398
0.0248423
0.033425
0.0405776
0.0405265
0.0333748
0.0247949
0.0144944
0.00213402
-0.0330672
-0.0251843
0.0119689
0.0263107
0.0382619
0.0482201
0.0565173
0.0736311
0.0654155
0.0555568
0.0437244
0.0295293
-0.0102968
0.00807794
0.0510064
0.0630477
0.0730797
0.0814435
0.0884113
0.0973953
0.0917139
0.0848963
0.0767152
0.0668966
0.0329964
0.0475556
0.0727208
0.0827011
0.0910161
0.0979465
0.10372
0.109371
0.102503
0.0942667
0.0843907
0.0725524
0.0439205
0.0125801
0.0335102
0.0405918
0.0465719
0.05169
0.0561356
-0.0413551
-0.0440837
-0.0468113
-0.0495388
-0.0522677
-0.061222
-0.149552
-0.144996
-0.144314
-0.143633
-0.14295
-0.142266
-0.243448
-0.243525
-0.243603
-0.243679
-0.243756
-0.245815
-0.345076
-0.344272
-0.344272
-0.344271
-0.344271
-0.344271
-0.444441
-0.444441
-0.444441
-0.444442
-0.444442
-0.444745
-0.444555
-0.444234
-0.444234
-0.444233
-0.444233
-0.444233
-0.543807
-0.543807
-0.543807
-0.543808
-0.543808
-0.543945
-0.543756
-0.543614
-0.543614
-0.543613
-0.543613
-0.543613
-0.543491
-0.543491
-0.543492
-0.543491
-0.54349
-0.543614
-0.543576
-0.543528
-0.543534
-0.54354
-0.543546
-0.543553
-0.543932
-0.543916
-0.543897
-0.543872
-0.543844
-0.543711
-0.543727
-0.54387
-0.54391
-0.543936
-0.543956
-0.543988
-0.54365
-0.543634
-0.543644
-0.54363
-0.543623
-0.543667
-0.543983
-0.543892
-0.543886
-0.543903
-0.543883
-0.543892
-0.544631
-0.544622
-0.544642
-0.544632
-0.544637
-0.544672
-0.54567
-0.545749
-0.545749
-0.545752
-0.545741
-0.545745
-0.547076
-0.547081
-0.547086
-0.547087
-0.547094
-0.546874
-0.54813
-0.548468
-0.548442
-0.548436
-0.548416
-0.548406
-0.549293
-0.549317
-0.549357
-0.549391
-0.549441
-0.549076
-0.44532
-0.444121
-0.443847
-0.443622
-0.443437
-0.443279
-0.336049
-0.336708
-0.337479
-0.338414
-0.33954
-0.343299
-0.246649
-0.238952
-0.235637
-0.232871
-0.230556
-0.228635
-0.121748
-0.125788
-0.130653
-0.13649
-0.143492
-0.159709
-0.10958
-0.0815049
-0.0711883
-0.0625825
-0.0554103
-0.0494278
-0.014501
-0.0204228
-0.0275159
-0.0360323
-0.0462446
-0.0736378
-0.0681662
-0.0358162
-0.0257651
-0.0173874
-0.0103991
-0.00457058
-0.00459824
-0.0104167
-0.0173907
-0.025758
-0.0358032
-0.0676289
-0.0675479
-0.0358232
-0.0257777
-0.0174072
-0.0104317
-0.00461701
-0.00466628
-0.0104791
-0.0174568
-0.0258239
-0.0358676
-0.0676188
-0.0677123
-0.0359265
-0.0258771
-0.0175044
-0.0105269
-0.00471114
0.0212858
0.0153824
0.00830454
-0.000192724
-0.0103926
-0.0394402
-0.0395046
-0.0104336
-0.000232664
0.00826882
0.0153516
0.0212548
0.0404951
0.0333409
0.0247569
0.0144556
0.00209355
-0.0331379
-0.025261
0.0119272
0.0262675
0.0382179
0.0481767
0.0564759
0.0735838
0.0653684
0.0555099
0.0436796
0.0294857
-0.0103788
0.00800726
0.0509698
0.0630101
0.0730436
0.0814076
0.0883751
0.0973752
0.0916925
0.0848737
0.076693
0.0668787
0.0329571
0.0475258
0.0727073
0.0826872
0.0910031
0.0979337
0.103709
0.109364
0.102494
0.0942545
0.0843747
0.0725338
0.0438912
0.0125488
0.0335034
0.040589
0.0465712
0.0516922
0.0561392
-0.0413831
-0.0441144
-0.046843
-0.0495713
-0.052302
-0.0612635
-0.149634
-0.145086
-0.144404
-0.143721
-0.14304
-0.142356
-0.243576
-0.243654
-0.24373
-0.243807
-0.243885
-0.245928
-0.345205
-0.344415
-0.344414
-0.344414
-0.344414
-0.344414
-0.444604
-0.444604
-0.444605
-0.444605
-0.444606
-0.444896
-0.544355
-0.544248
-0.544247
-0.544246
-0.544245
-0.544245
-0.544023
-0.544023
-0.544023
-0.544024
-0.544025
-0.544145
-0.643255
-0.643213
-0.643212
-0.643211
-0.643211
-0.64321
-0.642922
-0.642922
-0.642922
-0.642923
-0.642923
-0.642983
-0.642779
-0.642709
-0.642708
-0.642708
-0.642707
-0.642707
-0.642581
-0.642581
-0.642581
-0.642582
-0.642583
-0.642648
-0.642621
-0.642591
-0.642593
-0.642594
-0.642595
-0.642599
-0.642836
-0.642828
-0.642822
-0.642813
-0.642801
-0.642727
-0.642838
-0.642937
-0.642946
-0.642959
-0.642979
-0.642979
-0.643024
-0.643032
-0.643021
-0.643023
-0.643021
-0.642993
-0.643513
-0.643566
-0.643572
-0.643568
-0.643568
-0.643568
-0.644641
-0.644646
-0.644637
-0.644648
-0.644639
-0.644463
-0.645904
-0.646289
-0.646292
-0.646281
-0.64629
-0.646285
-0.648501
-0.648503
-0.648508
-0.648512
-0.648508
-0.647858
-0.650222
-0.651168
-0.651172
-0.651167
-0.651159
-0.651163
-0.653648
-0.653649
-0.653656
-0.653661
-0.653665
-0.65251
-0.653216
-0.654529
-0.654503
-0.654494
-0.654472
-0.654469
-0.548933
-0.549006
-0.549086
-0.549179
-0.549293
-0.549066
-0.44504
-0.443198
-0.442628
-0.442151
-0.441754
-0.441431
-0.33239
-0.333543
-0.334894
-0.336532
-0.338499
-0.343562
-0.247289
-0.235366
-0.230326
-0.226123
-0.222604
-0.219698
-0.12569
-0.130347
-0.135932
-0.142634
-0.15067
-0.170137
-0.126766
-0.0995783
-0.0890722
-0.0803124
-0.0730102
-0.0669243
-0.0553494
-0.061917
-0.0698059
-0.0792636
-0.0906119
-0.121094
-0.102531
-0.0664799
-0.0549378
-0.045313
-0.0372917
-0.030602
-0.0307558
-0.0374085
-0.0453912
-0.0549673
-0.0664569
-0.101791
-0.101679
-0.0665609
-0.0550713
-0.0454931
-0.0375099
-0.0308582
-0.0309361
-0.0375887
-0.0455732
-0.0551512
-0.0666447
-0.101735
-0.101827
-0.0667084
-0.05521
-0.0456317
-0.0376444
-0.0309895
-0.0310228
-0.0376776
-0.0456672
-0.0552504
-0.0667538
-0.101897
-0.0677803
-0.0359705
-0.0259163
-0.0175386
-0.0105588
-0.00473995
-0.00475337
-0.0105756
-0.0175575
-0.0259405
-0.0359946
-0.0678215
-0.039543
-0.0104569
-0.000253556
0.00824597
0.0153336
0.021236
0.0404775
0.0333213
0.024736
0.0144329
0.00206799
-0.0331809
-0.0253013
0.0119042
0.0262462
0.0381975
0.0481581
0.0564552
0.0735656
0.0653505
0.0554922
0.043662
0.0294687
-0.0104103
0.0079894
0.0509608
0.062999
0.0730322
0.0813959
0.0883613
0.0973687
0.0916858
0.0848696
0.0766905
0.0668754
0.0329555
0.0475282
0.0727047
0.0826854
0.091002
0.0979308
0.103705
0.109363
0.102493
0.0942527
0.0843727
0.0725312
0.0439015
0.0125712
0.0335373
0.0406291
0.0466148
0.0517372
0.056186
-0.0413691
-0.0440985
-0.0468267
-0.0495573
-0.0522888
-0.0612502
-0.149645
-0.145104
-0.144422
-0.143737
-0.143054
-0.142372
-0.243625
-0.243701
-0.243778
-0.243857
-0.243934
-0.245968
-0.345279
-0.344498
-0.344497
-0.344497
-0.344497
-0.344496
-0.444741
-0.444741
-0.444741
-0.444742
-0.444743
-0.445022
-0.544583
-0.544492
-0.544491
-0.54449
-0.544489
-0.544489
-0.64406
-0.644061
-0.644062
-0.644064
-0.644067
-0.644047
-0.643607
-0.643591
-0.643589
-0.643588
-0.643587
-0.643586
-0.742911
-0.742911
-0.742913
-0.742915
-0.742918
-0.742853
-0.742219
-0.742235
-0.742233
-0.742231
-0.74223
-0.742229
-0.741763
-0.741764
-0.741764
-0.741765
-0.741766
-0.741783
-0.741502
-0.741465
-0.741465
-0.741464
-0.741464
-0.741464
-0.741295
-0.741295
-0.741295
-0.741296
-0.741297
-0.741339
-0.741292
-0.741259
-0.741258
-0.741258
-0.741259
-0.741259
-0.741368
-0.741368
-0.741367
-0.741368
-0.741368
-0.741353
-0.7415
-0.741544
-0.741545
-0.741548
-0.741551
-0.741553
-0.74183
-0.74183
-0.741829
-0.741828
-0.741828
-0.741779
-0.742412
-0.742533
-0.74253
-0.742526
-0.742535
-0.74253
-0.743789
-0.743783
-0.743783
-0.743779
-0.743789
-0.743513
-0.745219
-0.745733
-0.745726
-0.745737
-0.745729
-0.745735
-0.748496
-0.748495
-0.748499
-0.748491
-0.748494
-0.747645
-0.750761
-0.75204
-0.752037
-0.752036
-0.752037
-0.752038
-0.755824
-0.755838
-0.755821
-0.755834
-0.755832
-0.754153
-0.757014
-0.758305
-0.758305
-0.758291
-0.758305
-0.75829
-0.752346
-0.752351
-0.75235
-0.752367
-0.752368
-0.750911
-0.650117
-0.651427
-0.65137
-0.651336
-0.651293
-0.651275
-0.546514
-0.546688
-0.546867
-0.547085
-0.547359
-0.547554
-0.444584
-0.441782
-0.440707
-0.439809
-0.439058
-0.438445
-0.328975
-0.330783
-0.33294
-0.33554
-0.33865
-0.345469
-0.255363
-0.239718
-0.233206
-0.227777
-0.223247
-0.219478
-0.140944
-0.146826
-0.15387
-0.162331
-0.172468
-0.201274
-0.161019
-0.133939
-0.123846
-0.115427
-0.108407
-0.102548
-0.0845166
-0.0909453
-0.098654
-0.107901
-0.118987
-0.153267
-0.152022
-0.118417
-0.10752
-0.0984344
-0.090863
-0.0845507
-0.0556953
-0.0621113
-0.0698183
-0.079061
-0.0901505
-0.119895
-0.119716
-0.0901905
-0.0791291
-0.0699099
-0.0622273
-0.0558262
-0.0559232
-0.0623229
-0.0700011
-0.0792177
-0.0902742
-0.11978
-0.11987
-0.0903464
-0.0792866
-0.0700677
-0.0623848
-0.0559854
-0.0560207
-0.0624222
-0.0701079
-0.0793317
-0.0903966
-0.11994
-0.119981
-0.0904227
-0.0793565
-0.0701284
-0.0624425
-0.0560358
-0.0310385
-0.0376931
-0.0456851
-0.055271
-0.0667791
-0.101941
-0.101963
-0.0667867
-0.055278
-0.0456921
-0.0377002
-0.0310402
-0.00476184
-0.0105798
-0.0175648
-0.0259478
-0.0360042
-0.067844
-0.039563
-0.010467
-0.000261538
0.00824024
0.0153255
0.0212312
0.0404696
0.0333146
0.024726
0.014422
0.00205568
-0.0332049
-0.0253229
0.0118935
0.0262366
0.0381871
0.0481483
0.0564474
0.07356
0.0653448
0.0554848
0.0436587
0.0294643
-0.0104223
0.00798748
0.0509614
0.0629995
0.07303
0.0813919
0.088359
0.0973667
0.0916857
0.0848715
0.0766935
0.0668787
0.0329624
0.047534
0.0727068
0.0826876
0.0910029
0.0979323
0.103706
0.109361
0.10249
0.0942518
0.084373
0.0725317
0.0439067
0.0125835
0.0335454
0.040636
0.0466229
0.0517424
0.0561891
-0.0413473
-0.0440764
-0.0468056
-0.0495362
-0.052269
-0.061228
-0.149634
-0.145096
-0.144414
-0.143729
-0.143044
-0.142363
-0.243642
-0.243718
-0.243797
-0.243876
-0.243953
-0.245982
-0.34533
-0.344554
-0.344553
-0.344552
-0.344552
-0.344552
-0.444862
-0.444862
-0.444862
-0.444863
-0.444864
-0.445134
-0.544823
-0.544755
-0.544753
-0.544752
-0.544751
-0.544751
-0.644609
-0.64461
-0.644611
-0.644614
-0.644617
-0.644548
-0.744729
-0.744986
-0.744983
-0.74498
-0.744979
-0.744978
-0.743845
-0.743846
-0.743848
-0.74385
-0.743854
-0.743707
-0.843903
-0.844251
-0.844248
-0.844245
-0.844244
-0.844243
-0.842485
-0.842486
-0.842487
-0.84249
-0.842494
-0.842317
-0.841192
-0.841266
-0.841263
-0.841261
-0.841259
-0.841259
-0.840487
-0.840487
-0.840488
-0.840489
-0.840491
-0.840474
-0.840048
-0.840035
-0.840035
-0.840034
-0.840034
-0.840033
-0.839784
-0.839784
-0.839785
-0.839786
-0.839787
-0.839814
-0.839725
-0.839689
-0.839687
-0.839686
-0.839684
-0.839683
-0.839699
-0.839703
-0.839708
-0.839712
-0.839718
-0.839736
-0.839881
-0.839888
-0.839887
-0.839881
-0.839878
-0.839876
-0.840236
-0.840241
-0.840232
-0.840237
-0.840239
-0.840192
-0.840826
-0.840958
-0.840951
-0.840955
-0.84096
-0.840955
-0.842188
-0.842188
-0.842196
-0.842185
-0.842192
-0.841908
-0.843604
-0.844125
-0.844125
-0.844126
-0.844127
-0.844121
-0.846943
-0.846957
-0.846943
-0.84695
-0.846953
-0.846073
-0.849312
-0.85071
-0.8507
-0.850702
-0.85071
-0.850703
-0.855001
-0.85499
-0.854996
-0.854987
-0.854999
-0.852857
-0.856046
-0.858679
-0.858675
-0.858674
-0.858673
-0.858675
-0.85926
-0.859265
-0.859261
-0.859265
-0.859262
-0.858035
-0.901234
-0.901644
-0.901632
-0.901623
-0.901612
-0.901606
-0.925109
-0.933791
-0.941029
-0.947064
-0.952092
-0.95209
-0.947063
-0.941032
-0.933799
-0.925122
-0.925133
-0.933809
-0.941044
-0.947067
-0.952083
-0.952084
-0.947062
-0.941042
-0.933815
-0.925151
-0.925166
-0.933827
-0.941052
-0.947058
-0.952076
-0.952235
-0.94707
-0.940878
-0.933443
-0.924523
-0.925739
-0.934443
-0.941702
-0.947744
-0.952782
-0.909927
-0.903492
-0.895771
-0.886504
-0.875383
-0.848797
-0.805059
-0.838018
-0.851583
-0.862889
-0.872309
-0.880157
-0.880001
-0.871987
-0.862365
-0.85082
-0.836965
-0.83751
-0.851179
-0.862568
-0.87206
-0.879968
-0.879983
-0.872073
-0.862577
-0.851181
-0.837506
-0.837507
-0.851188
-0.862584
-0.872081
-0.879996
-0.880014
-0.872093
-0.862592
-0.851188
-0.837507
-0.837505
-0.851189
-0.862594
-0.872099
-0.880017
-0.865284
-0.856794
-0.846607
-0.83438
-0.819707
-0.819709
-0.834377
-0.846601
-0.856788
-0.865275
-0.865267
-0.85678
-0.846595
-0.834373
-0.819709
-0.819705
-0.834368
-0.846587
-0.856767
-0.865252
-0.865236
-0.856757
-0.846578
-0.834363
-0.819705
-0.818223
-0.833314
-0.845889
-0.856366
-0.865093
-0.865047
-0.856215
-0.845614
-0.832891
-0.817622
-0.782396
-0.782329
-0.782399
-0.782385
-0.782366
-0.782347
-0.782343
-0.718819
-0.718877
-0.718923
-0.718992
-0.71907
-0.717978
-0.636441
-0.636839
-0.636463
-0.636164
-0.635894
-0.635686
-0.536301
-0.537013
-0.537843
-0.538867
-0.540075
-0.542416
-0.446151
-0.439725
-0.436565
-0.43394
-0.431735
-0.429909
-0.321611
-0.325317
-0.329749
-0.335077
-0.341461
-0.356615
-0.302153
-0.273983
-0.26438
-0.256379
-0.249704
-0.244142
-0.204064
-0.209645
-0.216355
-0.224397
-0.234035
-0.260237
-0.222125
-0.195108
-0.185122
-0.176793
-0.169853
-0.164065
-0.150261
-0.156522
-0.16403
-0.173036
-0.183841
-0.21478
-0.191907
-0.153449
-0.141727
-0.131954
-0.123808
-0.117017
-0.116776
-0.123463
-0.131479
-0.141101
-0.152644
-0.190279
-0.18991
-0.152595
-0.141086
-0.131492
-0.123504
-0.116837
-0.0846735
-0.0909718
-0.0985329
-0.107606
-0.118488
-0.151843
-0.151891
-0.118571
-0.107693
-0.0986271
-0.0910712
-0.0847796
-0.0848469
-0.0911417
-0.0987
-0.107769
-0.118654
-0.151988
-0.152063
-0.118708
-0.107818
-0.0987461
-0.0911853
-0.0848884
-0.0849063
-0.0912059
-0.0987723
-0.107844
-0.118739
-0.152108
-0.152134
-0.118753
-0.107858
-0.0987839
-0.0912154
-0.0849122
-0.0560406
-0.06245
-0.0701383
-0.0793664
-0.0904347
-0.120002
-0.120011
-0.0904371
-0.0793652
-0.0701383
-0.0624478
-0.0560384
-0.0310381
-0.0376981
-0.0456901
-0.0552805
-0.0667874
-0.101971
-0.0678489
-0.0360058
-0.025947
-0.0175666
-0.010579
-0.00476105
0.0212305
0.0153248
0.00823947
-0.000264404
-0.0104685
-0.0395698
-0.0332155
0.00205126
0.0144179
0.0247221
0.0333127
0.0404684
0.0564477
0.0481445
0.0381836
0.0262348
0.0118914
-0.0253311
-0.0104245
0.029467
0.0436614
0.0554868
0.0653427
0.0735579
0.0883569
0.0813923
0.073033
0.0630025
0.050965
0.00799081
0.0329689
0.0668834
0.0766945
0.0848719
0.0916869
0.0973649
0.103706
0.0979313
0.091001
0.082688
0.0727108
0.0475403
0.0439147
0.0725351
0.0843743
0.0942505
0.102488
0.109359
0.0562004
0.0517543
0.046634
0.0406478
0.0335577
0.012598
-0.0612103
-0.0522531
-0.0495211
-0.0467918
-0.0440602
-0.04133
-0.142352
-0.143035
-0.143718
-0.144402
-0.145085
-0.149623
-0.245989
-0.243959
-0.243882
-0.243804
-0.243726
-0.243649
-0.344592
-0.344592
-0.344592
-0.344593
-0.344593
-0.345366
-0.445236
-0.444973
-0.444972
-0.444971
-0.444971
-0.444971
-0.545003
-0.545004
-0.545005
-0.545006
-0.545008
-0.545056
-0.645057
-0.645178
-0.645175
-0.645172
-0.64517
-0.64517
-0.746166
-0.746167
-0.746168
-0.746171
-0.746173
-0.745788
-0.847929
-0.848803
-0.848802
-0.848801
-0.8488
-0.8488
-0.846447
-0.846448
-0.846449
-0.846451
-0.846453
-0.845862
-0.948418
-0.949597
-0.949596
-0.949596
-0.949595
-0.949595
-0.945551
-0.945552
-0.945553
-0.945554
-0.945556
-0.944876
-0.942135
-0.942482
-0.942479
-0.942477
-0.942475
-0.942475
-0.940421
-0.940421
-0.940423
-0.940425
-0.940428
-0.940275
-0.939141
-0.939195
-0.939193
-0.939191
-0.93919
-0.939189
-0.938507
-0.938507
-0.938508
-0.938508
-0.938509
-0.938503
-0.938168
-0.93815
-0.938149
-0.938148
-0.938148
-0.938147
-0.937977
-0.93798
-0.937982
-0.937983
-0.937986
-0.938019
-0.937977
-0.937945
-0.937938
-0.937933
-0.937927
-0.937922
-0.938056
-0.938059
-0.938063
-0.938069
-0.938079
-0.938088
-0.938359
-0.938393
-0.938387
-0.938387
-0.938387
-0.938387
-0.938992
-0.938992
-0.938992
-0.938995
-0.938992
-0.938889
-0.939783
-0.940007
-0.940016
-0.940005
-0.940014
-0.940009
-0.941623
-0.941617
-0.941617
-0.941621
-0.941621
-0.941198
-0.943289
-0.944013
-0.944013
-0.944014
-0.944001
-0.944017
-0.947266
-0.947263
-0.947272
-0.947274
-0.947266
-0.946055
-0.949116
-0.951261
-0.951265
-0.951267
-0.951257
-0.951259
-0.955704
-0.95569
-0.955704
-0.9557
-0.955698
-0.951651
-0.967748
-0.985672
-0.991815
-0.996936
-1.0012
-1.00476
-1.00419
-1.00418
-1.00418
-1.00418
-1.00419
-1.00068
-1.00068
-1.00069
-1.00069
-1.0007
-0.996499
-0.996493
-0.996483
-0.996476
-0.996467
-0.991413
-0.991426
-0.991436
-0.991458
-0.991476
-0.985436
-0.985406
-0.985382
-0.985368
-0.985347
-0.969956
-0.969958
-0.969977
-0.96999
-0.970005
-1.05319
-1.05316
-1.05315
-1.05315
-1.05313
-1.05714
-1.05716
-1.05718
-1.0572
-1.05724
-1.05969
-1.05967
-1.05965
-1.05963
-1.05962
-1.06169
-1.06169
-1.06171
-1.06172
-1.06173
-1.06344
-1.06343
-1.06342
-1.06341
-1.06341
-1.06484
-1.06484
-1.06484
-1.06486
-1.06485
-1.06532
-1.06386
-1.06209
-1.05998
-1.05743
-1.05286
-1.0526
-1.05802
-1.0606
-1.06276
-1.06455
-1.06604
-1.00585
-1.00237
-0.998189
-0.993173
-0.98715
-0.965445
-0.902043
-0.904961
-0.929536
-0.937295
-0.943764
-0.949152
-0.953634
-0.910406
-0.904637
-0.897715
-0.889411
-0.879445
-0.851455
-0.807344
-0.841158
-0.85382
-0.864374
-0.873164
-0.880493
-0.865262
-0.856746
-0.846526
-0.834263
-0.819543
-0.784409
-0.783327
-0.818584
-0.833621
-0.84615
-0.85659
-0.865286
-0.865115
-0.856102
-0.845283
-0.832296
-0.816711
-0.781269
-0.780828
-0.81715
-0.832618
-0.845507
-0.856242
-0.865189
-0.865331
-0.865343
-0.865354
-0.86536
-0.865366
-0.856617
-0.856612
-0.856608
-0.856602
-0.856592
-0.846108
-0.846111
-0.846113
-0.846113
-0.846115
-0.83351
-0.833512
-0.833517
-0.833519
-0.833521
-0.818421
-0.818411
-0.818404
-0.818393
-0.818386
-0.780353
-0.780382
-0.780418
-0.780471
-0.780523
-0.716446
-0.716175
-0.715945
-0.715759
-0.715596
-0.630715
-0.631244
-0.631886
-0.632636
-0.633557
-0.634413
-0.541642
-0.53703
-0.534642
-0.532645
-0.530998
-0.529601
-0.420796
-0.423724
-0.427259
-0.431502
-0.436577
-0.447947
-0.370539
-0.352044
-0.344545
-0.3383
-0.333086
-0.328736
-0.270586
-0.275927
-0.282337
-0.290025
-0.299249
-0.325118
-0.317656
-0.287994
-0.278393
-0.270386
-0.263715
-0.258153
-0.220268
-0.226544
-0.234075
-0.243111
-0.253946
-0.292163
-0.251765
-0.21828
-0.207718
-0.198908
-0.19156
-0.185438
-0.184865
-0.190841
-0.198005
-0.206604
-0.216914
-0.249824
-0.21289
-0.182751
-0.172255
-0.163511
-0.156215
-0.150139
-0.150113
-0.156158
-0.163407
-0.1721
-0.182537
-0.212397
-0.212339
-0.182541
-0.172121
-0.163437
-0.156203
-0.150166
-0.116925
-0.123581
-0.131566
-0.141148
-0.152649
-0.189888
-0.189965
-0.152718
-0.141217
-0.131632
-0.123647
-0.116989
-0.11703
-0.123692
-0.131678
-0.141268
-0.15277
-0.190036
-0.190086
-0.152803
-0.141298
-0.131706
-0.123714
-0.117055
-0.117064
-0.123724
-0.131719
-0.14131
-0.15282
-0.190113
-0.190124
-0.152826
-0.141314
-0.13172
-0.123725
-0.117065
-0.0849113
-0.0912146
-0.0987828
-0.107862
-0.118755
-0.152144
-0.152147
-0.118753
-0.107858
-0.0987758
-0.09121
-0.0849049
-0.0560304
-0.0624398
-0.0701327
-0.0793602
-0.0904344
-0.120011
-0.101972
-0.0667839
-0.0552766
-0.0456839
-0.0376892
-0.0310324
-0.00475326
-0.0105784
-0.0175623
-0.0259454
-0.0360044
-0.0678499
-0.039571
-0.0104663
-0.000261253
0.0082405
0.0153307
0.0212331
0.0404716
0.0333139
0.0247244
0.0144207
0.00205219
-0.0332179
-0.0253324
0.0118917
0.0262358
0.0381857
0.0481447
0.0564494
0.0735566
0.0653434
0.0554901
0.0436628
0.0294696
-0.0104246
0.00799224
0.0509686
0.0630043
0.0730361
0.0813933
0.0883576
0.0973639
0.091687
0.0848711
0.0766947
0.066885
0.0329737
0.0475464
0.0727117
0.0826878
0.091002
0.0979308
0.103704
0.109357
0.102487
0.0942508
0.0843746
0.0725354
0.0439185
0.012604
0.0335585
0.0406486
0.0466345
0.0517542
0.0562012
-0.0413224
-0.0440512
-0.0467819
-0.0495125
-0.0522433
-0.0611987
-0.149618
-0.14508
-0.144395
-0.143711
-0.143029
-0.142345
-0.243655
-0.243732
-0.243808
-0.243886
-0.243965
-0.245994
-0.345394
-0.344625
-0.344624
-0.344624
-0.344623
-0.344623
-0.445062
-0.445063
-0.445063
-0.445063
-0.445064
-0.445318
-0.545247
-0.545218
-0.545216
-0.545214
-0.545213
-0.545213
-0.645652
-0.645653
-0.645654
-0.645657
-0.645659
-0.645491
-0.746687
-0.747187
-0.747186
-0.747184
-0.747183
-0.747183
-0.850858
-0.850858
-0.850859
-0.850859
-0.85086
-0.849717
-0.956372
-0.95755
-0.957573
-0.957597
-0.957621
-0.957646
-0.953987
-0.953987
-0.953987
-0.953987
-0.953987
-0.952485
-1.06171
-1.06206
-1.06213
-1.0622
-1.06226
-1.06233
-1.05459
-1.05459
-1.05459
-1.05459
-1.05459
-1.0534
-1.0466
-1.04776
-1.04776
-1.04776
-1.04776
-1.04776
-1.04282
-1.04282
-1.04282
-1.04283
-1.04283
-1.04225
-1.03945
-1.0397
-1.0397
-1.0397
-1.03969
-1.03969
-1.03789
-1.03789
-1.03789
-1.0379
-1.0379
-1.0378
-1.03691
-1.03693
-1.03693
-1.03693
-1.03693
-1.03693
-1.03644
-1.03644
-1.03644
-1.03644
-1.03644
-1.03645
-1.03624
-1.03621
-1.03621
-1.03621
-1.03621
-1.03621
-1.0361
-1.0361
-1.0361
-1.03611
-1.03612
-1.03615
-1.0362
-1.03618
-1.03618
-1.03617
-1.03616
-1.03616
-1.03638
-1.03638
-1.03638
-1.03639
-1.03638
-1.03637
-1.03672
-1.03677
-1.03678
-1.03678
-1.03678
-1.03678
-1.03744
-1.03744
-1.03745
-1.03744
-1.03744
-1.0373
-1.03825
-1.0385
-1.0385
-1.03849
-1.0385
-1.03849
-1.04008
-1.04009
-1.04008
-1.04008
-1.04008
-1.03967
-1.0416
-1.04226
-1.04226
-1.04226
-1.04226
-1.04226
-1.04504
-1.04504
-1.04503
-1.04504
-1.04504
-1.04391
-1.04731
-1.0486
-1.0486
-1.0486
-1.04861
-1.04859
-1.13718
-1.13717
-1.13717
-1.13717
-1.13718
-1.13822
-1.13591
-1.1335
-1.13241
-1.1315
-1.13075
-1.13012
-1.12981
-1.12979
-1.12979
-1.12977
-1.12978
-1.13038
-1.13038
-1.1304
-1.1304
-1.13042
-1.13115
-1.13113
-1.13112
-1.1311
-1.1311
-1.13196
-1.13197
-1.13199
-1.13201
-1.13203
-1.13308
-1.13306
-1.13303
-1.13301
-1.133
-1.13509
-1.13509
-1.13511
-1.13512
-1.13514
-1.22033
-1.22031
-1.2203
-1.22029
-1.22028
-1.2069
-1.20692
-1.20695
-1.20697
-1.207
-1.20259
-1.20256
-1.20255
-1.20253
-1.20252
-1.19886
-1.19887
-1.19888
-1.19889
-1.19892
-1.19585
-1.19584
-1.19583
-1.19582
-1.19582
-1.19327
-1.19327
-1.19328
-1.19329
-1.1933
-1.19359
-1.19617
-1.19927
-1.20298
-1.20744
-1.22273
-1.22544
-1.20731
-1.203
-1.1994
-1.19641
-1.1939
-1.13068
-1.13133
-1.1321
-1.13302
-1.13412
-1.13701
-1.13758
-1.13438
-1.13331
-1.13242
-1.13168
-1.13105
-1.06654
-1.0651
-1.06338
-1.06131
-1.05883
-1.05299
-0.965403
-0.989274
-0.994889
-0.999564
-1.00346
-1.00671
-1.00717
-1.00402
-1.00025
-0.99571
-0.990272
-0.967228
-0.907551
-0.93162
-0.938903
-0.944972
-0.950028
-0.954235
-0.910612
-0.905162
-0.898623
-0.890773
-0.881359
-0.852517
-0.807841
-0.842671
-0.854921
-0.865129
-0.873636
-0.880725
-0.865377
-0.857031
-0.847012
-0.834991
-0.820567
-0.785364
-0.784278
-0.81962
-0.834352
-0.846628
-0.856858
-0.865379
-0.880735
-0.8733
-0.864385
-0.853679
-0.840834
-0.805558
-0.805031
-0.839325
-0.852603
-0.863663
-0.87288
-0.880559
-0.880316
-0.87212
-0.862281
-0.850473
-0.836301
-0.802521
-0.798767
-0.796102
-0.795944
-0.795807
-0.795702
-0.795606
-0.834187
-0.848994
-0.861333
-0.871617
-0.880183
-0.880181
-0.871621
-0.861343
-0.849009
-0.83421
-0.834234
-0.849023
-0.861352
-0.871621
-0.880174
-0.880167
-0.87162
-0.86136
-0.849043
-0.834266
-0.834299
-0.849066
-0.861369
-0.871622
-0.880158
-0.880203
-0.871702
-0.861495
-0.849247
-0.834546
-0.87139
-0.883678
-0.893924
-0.902455
-0.909564
-0.909239
-0.902103
-0.893545
-0.883263
-0.870934
-0.870879
-0.88323
-0.893526
-0.9021
-0.909242
-0.90924
-0.90209
-0.893501
-0.883204
-0.87084
-0.870801
-0.88318
-0.893487
-0.902083
-0.909241
-0.909242
-0.902076
-0.893479
-0.88316
-0.870775
-0.837161
-0.837285
-0.837429
-0.837598