/*--------------------------------*- C++ -*----------------------------------*\
| =========                 |                                                 |
| \\      /  F ield         | OpenFOAM: The Open Source CFD Toolbox           |
|  \\    /   O peration     | Version:  2212                                  |
|   \\  /    A nd           | Website:  www.openfoam.com                      |
|    \\/     M anipulation  |                                                 |
\*---------------------------------------------------------------------------*/
FoamFile
{
    version     2.0;
    format      ascii;
    arch        "LSB;label=32;scalar=64";
    class       volScalarField;
    location    "300";
    object      T;
}
// * * * * * * * * * * * * * * * * * * * * * * * * * * * * * * * * * * * * * //

dimensions      [0 0 0 1 0 0 0];

internalField   nonuniform List<scalar> 
261124
(
313.435
312.59
312.147
311.865
311.592
311.375
311.289
310.888
310.944
311.127
311.379
311.666
312.284
312.599
311.896
311.586
311.329
311.133
311.067
311.123
311.184
311.378
311.624
311.999
311.607
310.977
310.885
310.808
310.779
310.734
310.755
310.798
310.916
311.686
311.704
310.91
310.748
310.73
310.704
310.711
310.732
310.732
310.917
311.703
311.74
310.948
310.762
310.769
310.738
309.482
309.482
309.576
309.74
309.958
310.07
309.862
309.701
309.607
309.599
309.958
309.961
310.053
310.204
310.383
310.918
310.77
310.628
310.535
310.525
311.279
311.278
311.368
311.498
311.606
313.278
313.264
313.195
313.12
313.116
313.659
313.659
313.742
313.831
313.887
313.931
313.73
313.7
313.648
313.564
313.486
313.482
313.354
313.35
313.42
313.501
313.557
313.593
313.066
312.768
312.419
312.044
311.698
311.556
311.6
311.655
311.714
311.77
311.833
312.066
311.987
311.918
311.846
311.768
312.107
312.166
312.215
312.265
312.329
312.535
312.477
312.452
312.437
312.413
312.726
312.726
312.718
312.719
312.757
313.042
313.009
313.026
313.051
313.058
313.106
313.108
313.057
313.006
313.018
313.045
313.227
311.824
311.221
310.807
310.551
310.462
310.504
310.568
310.765
311.072
311.573
313.184
314.343
312.723
311.948
311.364
311.029
310.925
311.265
311.384
311.71
312.206
312.824
312.637
311.941
311.333
310.912
310.747
310.438
310.607
311.047
311.689
312.421
312.201
311.447
310.795
310.349
310.17
310.025
310.194
310.639
311.288
312.042
312.012
311.254
310.605
310.162
309.988
310.497
310.658
311.09
311.717
312.44
312.494
311.769
311.139
310.703
310.532
310.741
310.909
311.348
311.981
312.698
313.001
312.308
311.684
311.246
311.07
311.51
311.674
312.092
312.678
313.317
313.713
313.165
312.692
312.364
312.242
312.517
312.629
312.959
313.461
314.044
315.033
314.676
314.509
314.341
314.15
313.986
313.938
314.217
314.238
314.365
314.508
314.624
314.723
314.371
314.28
314.182
314.057
313.951
313.934
313.974
313.968
314.049
314.144
314.211
314.248
313.951
313.922
313.868
313.788
313.719
313.721
313.562
313.546
313.604
313.678
313.73
313.765
313.32
313.049
312.764
312.443
312.107
311.943
311.983
312.051
312.123
312.193
312.267
312.488
312.399
312.321
312.239
312.153
312.467
312.533
312.591
312.649
312.719
312.911
312.846
312.806
312.771
312.731
313.02
313.032
313.038
313.053
313.097
313.301
313.265
313.27
313.287
313.294
313.32
313.308
313.287
313.279
313.312
313.121
313.072
313.057
313.051
313.04
312.797
312.831
312.862
312.898
312.954
312.771
312.696
312.636
312.577
312.515
312.236
312.312
312.386
312.458
312.533
312.324
312.247
312.177
312.106
312.04
312.018
312.174
312.507
312.822
313.096
313.321
313.236
312.884
312.58
312.28
312.01
311.9
311.828
311.937
312.219
312.538
312.872
313.24
312.857
312.45
312.133
311.813
311.548
311.453
313.21
313.079
313.563
313.401
313.475
313.397
313.742
313.923
314.456
314.776
315.009
315.444
314.776
314.289
313.834
313.52
313.409
312.972
313.09
313.407
313.851
314.332
313.881
313.273
312.692
312.263
312.085
311.601
311.772
312.214
312.832
313.496
313.143
312.447
311.82
311.38
311.205
310.985
311.145
311.575
312.192
312.889
312.816
312.118
311.507
311.084
310.921
311.322
311.471
311.883
312.477
313.15
313.247
312.567
311.962
311.54
311.378
311.641
311.808
312.244
312.864
313.54
313.951
313.303
312.687
312.24
312.059
312.611
312.789
313.22
313.794
314.372
314.861
314.408
313.973
313.653
313.528
314.067
314.172
314.475
314.901
315.325
315.782
315.499
315.303
315.093
314.848
314.623
314.535
314.726
314.773
314.94
315.11
315.229
315.298
314.988
314.909
314.793
314.638
314.493
314.452
314.436
314.443
314.547
314.654
314.714
314.72
314.473
314.441
314.378
314.279
314.189
314.18
314.08
314.071
314.148
314.23
314.266
314.236
314.018
314.029
313.987
313.909
313.842
313.846
313.667
313.652
313.714
313.789
313.837
313.835
313.686
313.659
313.609
313.537
313.48
313.491
313.359
313.34
313.402
313.487
313.549
313.565
313.215
312.986
312.716
312.394
312.051
311.885
311.911
311.966
312.028
312.09
312.16
312.386
312.3
312.229
312.157
312.084
312.406
312.461
312.514
312.57
312.639
312.838
312.772
312.736
312.707
312.677
312.949
312.949
312.946
312.956
312.998
313.152
313.119
313.13
313.158
313.18
313.033
312.994
312.951
312.931
312.959
312.777
312.732
312.726
312.737
312.747
312.491
312.509
312.527
312.555
312.608
312.408
312.337
312.283
312.234
312.185
311.878
311.939
312.002
312.065
312.136
311.919
311.848
311.789
311.732
311.684
311.708
311.866
312.221
312.561
312.845
313.069
312.984
312.646
312.333
312.006
311.715
311.601
311.777
311.884
312.167
312.482
312.787
313.117
312.985
312.579
312.268
311.963
311.717
311.626
311.759
311.841
312.073
312.362
312.666
313.1
313.104
312.607
312.291
311.997
311.762
311.67
311.478
311.559
311.78
312.073
312.399
313.041
312.409
311.897
311.614
311.346
311.144
311.069
310.638
310.698
310.893
311.175
311.497
312.173
313.155
311.358
310.837
310.48
310.259
310.189
310.369
310.433
310.633
310.942
311.39
312.983
314.51
312.505
311.586
310.969
310.646
310.555
312.645
312.767
313.13
313.667
314.267
315.203
315.571
315.052
314.584
314.128
313.813
313.705
314.394
314.497
314.8
315.223
315.61
315.875
316.193
316.085
315.741
315.326
315.015
314.905
314.574
314.68
314.985
315.405
315.794
316.104
315.877
315.676
315.453
315.182
314.923
314.813
313.457
312.801
312.223
311.823
311.674
311.756
311.907
312.32
312.913
313.575
313.918
313.253
312.636
312.199
312.026
312.495
312.673
313.124
313.739
314.366
314.825
314.266
313.693
313.251
313.06
314.03
314.152
314.469
314.892
315.314
315.768
315.35
314.92
314.594
314.466
313.497
313.686
314.132
314.701
315.241
314.764
314.144
313.526
313.067
312.876
312.395
312.561
312.999
313.614
314.269
313.89
313.235
312.648
312.241
312.087
312.01
312.146
312.531
313.094
313.734
315.082
315.214
315.511
315.812
316.052
316.251
315.92
315.834
315.71
315.51
315.295
315.203
314.954
315.023
315.213
315.398
315.519
315.583
315.233
315.236
315.183
315.058
314.921
314.883
314.645
314.669
314.787
314.9
314.956
314.946
314.676
314.731
314.703
314.608
314.507
314.492
314.271
314.275
314.361
314.448
314.478
314.43
314.242
314.316
314.275
314.172
314.078
314.069
313.864
313.864
313.946
314.039
314.081
314.02
313.846
313.89
313.843
313.754
313.679
313.68
313.514
313.503
313.572
313.661
313.719
313.7
313.583
313.581
313.494
313.381
313.297
313.295
313.12
313.113
313.186
313.289
313.372
313.408
313.289
313.212
313.1
312.975
312.889
312.885
312.711
312.684
312.711
312.766
312.822
312.568
312.544
312.522
312.519
312.554
312.393
312.336
312.308
312.293
312.281
311.98
312.022
312.066
312.114
312.178
311.897
311.82
311.757
311.694
311.636
311.468
311.506
311.556
311.607
311.67
311.426
311.354
311.303
311.255
311.222
311.41
311.461
311.52
311.58
311.65
311.957
311.883
311.831
311.786
311.743
312.084
312.089
312.1
312.124
312.176
312.35
312.305
312.308
312.333
312.364
312.65
312.577
312.51
312.475
312.498
312.649
312.645
312.741
312.883
313.018
313.149
312.76
312.506
312.195
311.819
311.445
311.282
311.214
311.323
311.633
312.002
312.356
312.697
312.84
312.508
312.18
311.83
311.53
311.413
311.278
311.364
311.622
311.96
312.304
312.681
312.832
312.439
312.118
311.8
311.551
311.466
311.298
311.376
311.613
311.938
312.284
312.683
312.838
312.403
312.072
311.761
311.528
311.449
311.566
311.648
311.875
312.173
312.503
312.983
312.955
312.418
312.032
311.695
311.452
311.366
311.254
311.341
311.576
311.904
312.31
313.085
312.367
311.714
311.398
311.11
310.9
310.825
310.378
310.439
310.646
310.96
311.33
312.104
313.525
311.349
310.721
310.314
310.076
310.003
310.755
310.89
311.344
312.159
313.25
315
314.738
312.792
311.789
311.076
310.692
310.585
313.012
313.14
313.504
314.041
314.611
315.346
315.63
315.358
314.935
314.484
314.166
314.058
314.743
314.847
315.153
315.558
315.867
315.853
316.164
316.298
316.067
315.691
315.383
315.273
315.816
315.925
316.229
316.58
316.754
316.547
316.514
316.531
316.232
315.832
315.52
315.41
315.048
315.157
315.469
315.891
316.26
316.474
316.887
316.719
316.356
315.924
315.596
315.477
314.897
315.02
315.344
315.771
316.173
315.666
315.126
314.549
314.091
313.887
313.256
313.442
313.907
314.531
315.146
314.614
313.957
313.338
312.896
312.721
312.407
312.55
312.951
313.533
314.182
314.005
313.371
312.816
312.439
312.303
312.583
312.705
313.073
313.619
314.248
314.453
313.801
313.221
312.824
312.678
313.033
313.2
313.642
314.266
314.926
315.512
314.886
314.252
313.776
313.579
314.263
314.466
314.932
315.518
316.06
316.603
316.19
315.749
315.411
315.277
315.93
316.044
316.37
316.802
317.154
317.298
317.01
316.781
316.503
316.146
315.777
315.583
315.69
315.82
316.11
316.376
316.546
316.633
316.26
316.17
316.03
315.801
315.551
315.436
315.345
315.407
315.599
315.774
315.86
315.856
315.518
315.525
315.46
315.314
315.153
315.099
314.923
314.95
315.092
315.227
315.277
315.214
314.912
314.979
314.947
314.835
314.716
314.692
314.467
314.481
314.606
314.742
314.801
314.718
314.448
314.535
314.49
314.374
314.267
314.252
313.989
314.001
314.126
314.279
314.373
314.322
314.078
314.131
314.05
313.914
313.804
313.789
313.63
313.634
313.733
313.857
313.934
313.889
313.718
313.752
313.672
313.554
313.463
313.459
313.211
313.213
313.321
313.469
313.589
313.609
313.434
313.384
313.267
313.13
313.034
313.027
312.782
312.785
312.894
313.053
313.201
313.315
313.171
312.999
312.823
312.648
312.53
312.512
312.376
312.384
312.487
312.645
312.804
312.987
312.601
312.332
312.003
311.608
311.22
311.055
310.973
310.998
311.041
311.089
311.152
311.391
311.312
311.251
311.192
311.143
311.511
311.546
311.587
311.633
311.697
311.927
311.87
311.848
311.84
311.84
312.153
312.107
312.072
312.06
312.092
312.24
312.221
312.262
312.339
312.427
312.229
312.128
312.043
311.997
312.013
311.846
311.81
311.822
311.861
311.913
311.615
311.607
311.609
311.626
311.673
311.447
311.378
311.33
311.289
311.254
310.899
310.944
311
311.059
311.127
310.897
310.829
310.777
310.733
310.707
310.821
310.984
311.385
311.801
312.148
312.422
312.383
312.029
311.627
311.215
310.878
310.755
310.989
311.102
311.425
311.816
312.194
312.536
312.371
312.047
311.653
311.264
310.974
310.872
311.078
311.174
311.446
311.806
312.175
312.517
312.345
312.029
311.656
311.285
311.018
310.924
311.108
311.195
311.444
311.789
312.15
312.502
312.381
312.03
311.655
311.293
311.034
310.943
311.117
311.201
311.448
311.795
312.166
312.561
312.748
312.298
311.926
311.587
311.346
311.266
311.107
311.192
311.456
311.842
312.278
312.783
313.022
312.403
311.932
311.537
311.269
311.18
311.02
311.116
311.378
311.766
312.268
313.115
312.328
311.485
311.13
310.828
310.619
310.549
310.074
310.134
310.34
310.659
311.05
311.929
313.508
311.172
310.504
310.084
309.841
309.766
310.656
310.789
311.229
312.007
313.06
315.114
316.014
314.911
314.232
313.645
313.265
313.138
313.305
313.433
313.809
314.364
314.928
315.485
315.695
315.604
315.248
314.815
314.497
314.386
315.073
315.177
315.474
315.843
316.073
315.98
316.391
316.535
316.364
316.021
315.718
315.609
316.169
316.281
316.59
316.925
317.062
316.866
317.399
317.586
317.466
317.132
316.81
316.69
316.306
316.417
316.727
317.071
317.219
316.986
316.919
316.988
316.716
316.318
316
315.887
316.367
316.48
316.802
317.204
317.466
317.377
317.839
317.929
317.656
317.236
316.896
316.774
316.303
316.419
316.753
317.195
317.553
317.687
317.415
317.159
316.855
316.458
316.043
315.819
314.454
313.824
313.286
312.928
312.807
312.928
313.061
313.451
314.027
314.679
315.198
314.529
313.9
313.456
313.284
313.874
314.067
314.546
315.188
315.82
316.408
315.854
315.256
314.778
314.563
315.638
315.77
316.11
316.555
316.969
317.358
316.922
316.458
316.104
315.966
314.859
315.067
315.549
316.156
316.719
316.103
315.454
314.802
314.316
314.114
313.517
313.68
314.122
314.753
315.43
314.878
314.218
313.647
313.264
313.127
313.013
313.122
313.465
313.992
314.618
316.032
316.285
316.752
317.198
317.538
317.808
317.378
317.206
316.982
316.642
316.271
316.08
315.887
316.048
316.377
316.682
316.882
317
316.55
316.484
316.349
316.109
315.85
315.738
315.536
315.624
315.847
316.053
316.164
316.181
315.844
315.847
315.753
315.561
315.365
315.297
315.101
315.149
315.315
315.476
315.546
315.501
315.286
315.317
315.217
315.032
314.863
314.817
314.631
314.661
314.806
314.964
315.04
314.976
314.837
314.844
314.71
314.513
314.354
314.316
314.141
314.166
314.306
314.478
314.588
314.551
314.427
314.381
314.216
314.009
313.851
313.815
313.652
313.677
313.818
314.003
314.146
314.167
313.964
313.95
313.821
313.652
313.523
313.5
313.357
313.369
313.486
313.643
313.764
313.777
313.658
313.57
313.408
313.226
313.094
313.07
312.913
312.928
313.047
313.218
313.373
313.464
313.332
313.173
312.988
312.8
312.67
312.648
312.405
312.417
312.549
312.746
312.946
313.157
312.986
312.761
312.571
312.388
312.268
312.252
312.144
312.151
312.26
312.429
312.606
312.838
312.568
312.305
312.119
311.947
311.837
311.825
311.689
311.671
311.718
311.805
311.912
311.624
311.567
311.524
311.508
311.538
311.371
311.319
311.3
311.297
311.305
310.952
310.985
311.026
311.072
311.134
310.817
310.741
310.678
310.618
310.57
310.396
310.419
310.463
310.512
310.575
310.365
310.29
310.237
310.19
310.162
310.358
310.406
310.467
310.53
310.603
310.934
310.859
310.808
310.763
310.725
311.104
311.095
311.097
311.116
311.166
311.341
311.3
311.312
311.353
311.41
311.714
311.602
311.513
311.466
311.483
311.615
311.617
311.725
311.898
312.089
312.383
311.953
311.664
311.303
310.864
310.444
310.268
310.232
310.353
310.709
311.16
311.59
311.935
312.115
311.772
311.357
310.923
310.575
310.448
310.36
310.46
310.77
311.211
311.634
311.931
312.19
311.883
311.472
311.057
310.759
310.662
310.554
310.645
310.935
311.348
311.746
312.005
312.162
311.885
311.501
311.109
310.833
310.744
310.613
310.7
310.975
311.369
311.752
312.024
312.188
311.884
311.508
311.13
310.865
310.78
310.642
310.728
310.999
311.391
311.79
312.144
312.331
311.94
311.538
311.153
310.885
310.795
310.956
311.046
311.31
311.691
312.104
312.538
312.635
312.106
311.629
311.203
310.916
310.819
310.952
311.047
311.339
311.781
312.297
312.896
313.117
312.392
311.83
311.373
311.077
310.981
310.699
310.795
311.073
311.509
312.094
313.048
312.334
311.376
310.936
310.587
310.361
310.292
309.764
309.824
310.03
310.363
310.782
311.776
313.351
310.998
310.302
309.859
309.608
309.532
310.603
310.729
311.15
311.883
312.868
315.129
316.218
314.717
313.983
313.384
313.01
312.891
314.145
314.257
314.614
315.175
315.832
316.983
316.546
315.9
315.338
314.813
314.463
314.348
315.214
315.331
315.685
316.2
316.68
316.96
317.353
317.272
316.912
316.431
316.071
315.947
316.645
316.764
317.105
317.526
317.8
317.816
318.375
318.336
318.087
317.681
317.339
317.216
317.807
317.933
318.292
318.72
318.995
319.031
317.984
318.17
318.046
317.703
317.371
317.247
316.802
316.918
317.238
317.59
317.734
317.492
318.034
318.266
318.108
317.736
317.398
317.273
317.784
317.906
318.251
318.641
318.815
318.562
318.271
318.38
318.104
317.68
317.341
317.219
316.696
316.816
317.159
317.614
317.984
318.122
318.554
318.385
317.987
317.51
317.153
317.025
316.281
316.414
316.767
317.237
317.678
317.041
316.451
315.823
315.328
315.105
314.348
314.542
315.031
315.696
316.361
315.64
314.946
314.31
313.87
313.7
313.308
313.431
313.805
314.372
315.035
314.76
314.128
313.61
313.276
313.169
313.298
313.389
313.709
314.215
314.847
315.144
314.472
313.914
313.551
313.428
313.859
314.016
314.448
315.082
315.789
316.587
315.893
315.217
314.724
314.523
315.35
315.57
316.075
316.722
317.334
318.068
317.604
317.113
316.741
316.596
317.432
317.558
317.918
318.398
318.793
318.953
318.522
318.199
317.78
317.225
316.648
316.324
316.396
316.638
317.119
317.579
317.893
318.089
317.741
317.541
317.28
316.888
316.465
316.244
316.089
316.24
316.589
316.928
317.144
317.247
316.887
316.802
316.632
316.347
316.046
315.91
315.652
315.746
316.015
316.292
316.464
316.517
316.161
316.141
316.013
315.781
315.551
315.466
315.16
315.222
315.447
315.703
315.873
315.908
315.573
315.577
315.447
315.229
315.035
314.977
314.646
314.691
314.892
315.148
315.342
315.405
315.093
315.073
314.914
314.69
314.512
314.467
314.13
314.17
314.361
314.618
314.838
314.952
314.662
314.589
314.401
314.172
314
313.958
313.643
313.682
313.867
314.121
314.35
314.502
314.234
314.116
313.915
313.687
313.519
313.478
313.351
313.38
313.534
313.745
313.928
314.026
313.834
313.744
313.575
313.38
313.238
313.21
312.942
312.965
313.115
313.326
313.523
313.672
313.476
313.327
313.141
312.944
312.806
312.781
312.535
312.553
312.695
312.902
313.108
313.307
313
312.776
312.563
312.358
312.22
312.196
312.064
312.079
312.207
312.402
312.606
312.845
312.707
312.451
312.254
312.07
311.951
311.934
311.731
311.737
311.855
312.041
312.244
312.537
312.351
312.033
311.823
311.638
311.521
311.506
311.38
311.388
311.496
311.668
311.865
312.182
311.758
311.466
311.1
310.655
310.226
310.048
309.946
309.973
310.021
310.075
310.143
310.394
310.311
310.243
310.179
310.125
310.518
310.553
310.596
310.645
310.71
310.944
310.887
310.867
310.863
310.871
311.2
311.138
311.094
311.079
311.109
311.256
311.237
311.283
311.372
311.484
311.285
311.17
311.082
311.036
311.053
310.889
310.852
310.865
310.908
310.969
310.664
310.652
310.653
310.671
310.719
310.498
310.427
310.376
310.331
310.294
309.927
309.98
310.043
310.109
310.182
309.944
309.87
309.812
309.759
309.725
309.841
310.016
310.45
310.899
311.271
311.559
311.556
311.2
310.757
310.289
309.917
309.782
310.002
310.127
310.492
310.953
311.391
311.731
311.592
311.29
310.843
310.368
310.033
309.918
310.139
310.248
310.571
311.031
311.464
311.758
311.596
311.341
310.919
310.466
310.15
310.042
310.259
310.359
310.661
311.094
311.502
311.751
311.613
311.359
310.96
310.535
310.24
310.141
310.412
310.509
310.794
311.202
311.591
311.846
311.802
311.474
311.069
310.657
310.369
310.269
310.458
310.551
310.827
311.227
311.625
311.955
311.995
311.538
311.101
310.687
310.406
310.31
310.498
310.587
310.863
311.275
311.715
312.175
312.38
311.9
311.449
311.033
310.754
310.666
310.547
310.637
310.928
311.381
311.898
312.511
312.775
312.127
311.576
311.101
310.794
310.696
310.808
310.909
311.227
311.724
312.323
313.038
313.217
312.367
311.722
311.212
310.896
310.796
310.493
310.587
310.864
311.319
311.951
313.089
312.372
311.399
310.872
310.438
310.165
310.081
310.222
310.334
310.671
311.167
311.738
312.393
314.067
313.017
312.027
311.177
310.653
310.49
312.027
312.233
312.861
313.771
314.695
315.523
316.399
315.871
315.235
314.558
314.068
313.901
315.033
315.186
315.633
316.218
316.722
317.062
317.686
317.437
317.023
316.486
316.05
315.892
315.045
315.163
315.533
316.105
316.741
317.609
318.251
317.602
316.973
316.377
315.983
315.856
316.668
316.802
317.22
317.839
318.459
318.963
319.749
319.302
318.68
318.022
317.568
317.421
318.218
318.375
318.859
319.549
320.173
320.588
321.47
320.946
320.301
319.596
319.095
318.931
318.366
318.503
318.899
319.379
319.702
319.783
318.608
318.787
318.64
318.269
317.92
317.79
318.335
318.468
318.838
319.246
319.43
319.253
319.858
319.971
319.752
319.311
318.921
318.781
318.185
318.309
318.664
319.077
319.276
319.041
318.724
318.818
318.518
318.074
317.726
317.604
318.031
318.154
318.508
318.958
319.262
319.158
319.567
319.601
319.237
318.746
318.377
318.248
317.604
317.728
318.088
318.586
319.024
319.277
318.867
318.489
318.011
317.386
316.754
316.405
314.868
314.235
313.742
313.438
313.349
313.5
313.607
313.953
314.498
315.169
315.846
315.126
314.5
314.08
313.924
314.623
314.812
315.295
315.97
316.681
317.489
316.842
316.184
315.677
315.452
316.769
316.911
317.28
317.78
318.27
318.366
317.843
317.33
316.956
316.812
315.482
315.694
316.19
316.846
317.504
316.682
315.956
315.287
314.813
314.622
313.937
314.08
314.486
315.1
315.821
315.145
314.47
313.939
313.606
313.497
313.36
313.438
313.725
314.203
314.832
316.43
316.787
317.453
318.123
318.641
319.039
318.7
318.361
317.939
317.362
316.793
316.502
316.467
316.738
317.272
317.801
318.178
318.422
317.928
317.706
317.39
316.937
316.497
316.291
316.197
316.379
316.775
317.172
317.441
317.591
317.191
317.025
316.763
316.389
316.041
315.896
315.773
315.894
316.201
316.526
316.742
316.839
316.558
316.406
316.154
315.816
315.527
315.423
315.285
315.369
315.624
315.92
316.129
316.213
316.015
315.84
315.57
315.246
314.994
314.915
314.771
314.834
315.058
315.345
315.574
315.683
315.528
315.305
315.013
314.697
314.467
314.401
314.255
314.308
314.516
314.8
315.052
315.212
315.043
314.796
314.499
314.192
313.973
313.91
313.765
313.816
314.016
314.293
314.551
314.737
314.551
314.313
314.026
313.733
313.523
313.463
313.318
313.366
313.557
313.822
314.071
314.258
314.043
313.876
313.649
313.406
313.23
313.186
313.065
313.098
313.26
313.486
313.695
313.848
313.662
313.468
313.239
313.004
312.838
312.799
312.654
312.684
312.835
313.052
313.264
313.449
313.141
312.93
312.713
312.498
312.351
312.322
312.118
312.14
312.287
312.51
312.747
313.018
312.828
312.565
312.34
312.132
311.996
311.974
311.849
311.864
311.991
312.189
312.404
312.678
312.519
312.208
311.984
311.785
311.658
311.639
311.442
311.446
311.564
311.755
311.974
312.324
312.135
311.789
311.583
311.405
311.296
311.287
311.179
311.184
311.288
311.458
311.656
311.998
311.801
311.438
311.243
311.08
310.982
310.976
310.836
310.812
310.852
310.935
311.046
310.772
310.709
310.668
310.655
310.688
310.528
310.472
310.45
310.445
310.454
310.109
310.144
310.188
310.237
310.303
309.999
309.917
309.848
309.781
309.724
309.545
309.578
309.631
309.687
309.755
309.575
309.497
309.438
309.384
309.347
309.546
309.601
309.667
309.734
309.81
310.12
310.043
309.988
309.94
309.901
310.261
310.252
310.258
310.281
310.335
310.502
310.457
310.462
310.496
310.551
310.835
310.728
310.652
310.617
310.641
310.771
310.762
310.847
310.993
311.175
311.554
311.129
310.845
310.486
310.05
309.623
309.437
309.392
309.519
309.889
310.355
310.802
311.161
311.351
311.001
310.558
310.089
309.716
309.581
309.503
309.609
309.943
310.422
310.901
311.233
311.397
311.087
310.626
310.148
309.814
309.709
309.629
309.726
310.043
310.518
310.979
311.265
311.415
311.152
310.715
310.249
309.932
309.834
309.745
309.839
310.143
310.6
311.036
311.315
311.46
311.2
310.784
310.342
310.04
309.946
309.831
309.923
310.214
310.649
311.081
311.436
311.572
311.236
310.82
310.396
310.107
310.014
309.867
309.956
310.233
310.647
311.082
311.583
311.811
311.342
310.905
310.493
310.216
310.128
309.974
310.06
310.33
310.738
311.192
311.823
312.036
311.414
310.946
310.526
310.249
310.158
310.351
310.444
310.723
311.157
311.648
312.255
312.339
311.562
311.033
310.584
310.298
310.202
310.404
310.498
310.798
311.28
311.859
312.628
312.906
312.115
311.49
310.975
310.654
310.554
310.635
310.74
311.072
311.609
312.28
313.133
313.198
312.212
311.516
310.982
310.659
310.555
310.241
310.328
310.595
311.031
311.628
312.878
312.165
310.988
310.517
310.148
309.919
309.848
310.179
310.285
310.619
311.201
312.028
313.929
314.156
312.594
311.655
310.928
310.52
310.396
311.943
312.121
312.664
313.487
314.38
315.659
316.687
315.744
315.078
314.442
314.008
313.863
315.029
315.167
315.574
316.152
316.735
317.531
318.331
317.651
317.092
316.514
316.099
315.958
316.854
316.997
317.426
318.019
318.581
319.189
318.323
318.164
317.815
317.313
316.882
316.724
317.533
317.692
318.124
318.612
318.931
319.033
319.804
319.675
319.37
318.885
318.441
318.274
319.05
319.22
319.678
320.18
320.508
320.632
321.529
321.308
320.946
320.414
319.937
319.76
320.517
320.699
321.205
321.792
322.226
322.474
322.374
321.759
321.06
320.32
319.802
319.634
318.938
319.086
319.517
320.054
320.441
320.6
321.441
321.138
320.683
320.095
319.636
319.48
320.096
320.257
320.738
321.375
321.905
322.271
320.398
320.507
320.283
319.834
319.441
319.3
318.638
318.765
319.126
319.545
319.745
319.505
319.958
320.157
319.908
319.445
319.063
318.929
319.11
319.242
319.635
320.139
320.467
320.369
319.848
319.793
319.386
318.878
318.509
318.382
317.702
317.827
318.192
318.708
319.184
319.537
319.743
319.274
318.755
318.217
317.84
317.708
316.809
316.946
317.316
317.832
318.368
317.513
316.826
316.161
315.663
315.444
314.597
314.776
315.242
315.91
316.647
315.774
315.042
314.434
314.036
313.89
313.464
313.56
313.884
314.407
315.082
314.777
314.141
313.671
313.39
313.311
313.237
313.379
313.816
314.518
315.385
315.599
314.696
313.953
313.475
313.301
313.584
313.792
314.343
315.158
316.091
316.762
315.816
314.941
314.306
314.04
314.687
314.989
315.68
316.575
317.462
318.751
318.132
317.413
316.716
316.345
316.515
316.821
317.454
318.133
318.668
319.09
318.923
318.529
318.049
317.42
316.817
316.513
316.402
316.636
317.163
317.748
318.218
318.577
318.25
317.958
317.575
317.058
316.572
316.347
316.082
316.257
316.692
317.188
317.58
317.856
317.514
317.294
316.975
316.542
316.151
315.987
315.654
315.783
316.148
316.59
316.955
317.223
316.872
316.667
316.364
315.977
315.652
315.531
315.176
315.272
315.586
315.997
316.364
316.662
316.307
316.082
315.769
315.405
315.126
315.035
314.681
314.756
315.033
315.424
315.805
316.155
315.806
315.531
315.201
314.852
314.602
314.528
314.2
314.267
314.526
314.9
315.287
315.666
315.312
315.016
314.681
314.345
314.109
314.04
313.758
313.826
314.077
314.439
314.816
315.174
314.818
314.536
314.213
313.89
313.662
313.595
313.363
313.429
313.673
314.021
314.379
314.7
314.342
314.084
313.779
313.473
313.256
313.194
313.067
313.116
313.313
313.59
313.861
314.082
313.856
313.655
313.409
313.156
312.975
312.931
312.719
312.757
312.943
313.212
313.485
313.742
313.467
313.238
312.994
312.754
312.588
312.551
312.359
312.388
312.557
312.812
313.086
313.402
313.343
312.934
312.635
312.369
312.201
312.171
311.917
311.941
312.087
312.316
312.572
312.911
312.695
312.38
312.143
311.931
311.795
311.775
311.585
311.592
311.719
311.922
312.157
312.525
312.283
311.888
311.673
311.496
311.39
311.387
311.222
311.224
311.326
311.496
311.7
312.073
311.929
311.557
311.358
311.192
311.093
311.09
310.887
310.877
310.96
311.103
311.283
311.674
311.355
310.951
310.791
310.674
310.611
310.624
310.516
310.505
310.576
310.703
310.871
311.26
310.881
310.613
310.268
309.845
309.426
309.244
309.157
309.191
309.244
309.302
309.371
309.613
309.528
309.458
309.391
309.333
309.701
309.738
309.783
309.834
309.902
310.114
310.053
310.026
310.016
310.022
310.319
310.264
310.233
310.23
310.268
310.406
310.377
310.403
310.469
310.567
310.338
310.251
310.198
310.18
310.211
310.053
310.007
310.002
310.024
310.069
309.806
309.802
309.814
309.841
309.894
309.696
309.623
309.568
309.519
309.48
309.148
309.204
309.27
309.337
309.411
309.186
309.112
309.051
308.994
308.954
309.051
309.223
309.633
310.044
310.38
310.632
310.726
310.342
309.909
309.474
309.118
308.986
309.187
309.315
309.679
310.131
310.574
310.933
310.867
310.482
309.995
309.536
309.206
309.09
309.289
309.401
309.733
310.201
310.688
311.036
310.937
310.569
310.076
309.61
309.293
309.183
309.396
309.501
309.816
310.286
310.769
311.085
311.007
310.646
310.169
309.709
309.399
309.292
309.514
309.616
309.92
310.378
310.838
311.146
311.137
310.714
310.251
309.805
309.504
309.398
309.613
309.712
310.006
310.445
310.893
311.274
311.288
310.738
310.286
309.861
309.573
309.472
309.672
309.768
310.049
310.467
310.91
311.433
311.372
310.715
310.269
309.868
309.595
309.499
309.698
309.787
310.054
310.455
310.9
311.541
311.467
310.676
310.226
309.837
309.576
309.486
309.778
309.865
310.127
310.524
310.988
311.768
312.026
311.257
310.769
310.351
310.082
309.996
309.808
309.894
310.165
310.587
311.097
312.019
312.347
311.426
310.868
310.412
310.125
310.033
310.238
310.333
310.636
311.133
311.757
312.698
312.965
312.018
311.338
310.798
310.473
310.373
310.405
310.51
310.843
311.399
312.117
313.116
313.029
311.938
311.22
310.681
310.356
310.253
310
310.085
310.366
310.837
311.488
312.68
311.941
310.692
310.227
309.868
309.644
309.577
309.847
309.943
310.244
310.756
311.491
313.574
315.238
313.288
312.419
311.719
311.29
311.154
311.61
311.764
312.235
312.979
313.839
315.485
316.637
315.345
314.68
314.098
313.707
313.575
314.786
314.915
315.289
315.834
316.444
317.6
318.53
317.436
316.826
316.271
315.887
315.757
316.668
316.805
317.206
317.789
318.423
319.506
320.577
319.447
318.752
318.11
317.666
317.512
317.675
317.833
318.296
318.927
319.515
320.085
321.067
320.466
319.843
319.166
318.659
318.486
319.309
319.498
320.05
320.786
321.48
322.123
323.257
322.489
321.718
320.906
320.298
320.092
320.877
321.101
321.765
322.673
323.579
324.466
325.661
324.538
323.511
322.517
321.812
321.577
321.21
321.401
321.942
322.593
323.109
323.45
323.322
322.59
321.816
321.027
320.488
320.315
321.044
321.221
321.779
322.607
323.435
324.181
324.942
323.987
323.085
322.233
321.679
321.505
320.532
320.701
321.222
321.951
322.607
323.108
320.912
321.005
320.732
320.232
319.814
319.669
319.865
320.013
320.456
321.021
321.403
321.41
321.801
321.638
321.186
320.575
320.111
319.955
319.162
319.298
319.704
320.242
320.633
320.66
320.104
319.926
319.467
318.933
318.554
318.426
318.432
318.56
318.949
319.509
320.02
320.333
319.856
319.29
318.743
318.196
317.82
317.691
316.764
316.904
317.278
317.808
318.372
319.229
319.29
318.729
318.124
317.367
316.648
316.272
314.554
313.907
313.443
313.175
313.103
313.257
313.345
313.654
314.166
314.851
315.55
314.802
314.204
313.822
313.685