/*--------------------------------*- C++ -*----------------------------------*\
| =========                 |                                                 |
| \\      /  F ield         | OpenFOAM: The Open Source CFD Toolbox           |
|  \\    /   O peration     | Version:  2212                                  |
|   \\  /    A nd           | Website:  www.openfoam.com                      |
|    \\/     M anipulation  |                                                 |
\*---------------------------------------------------------------------------*/
FoamFile
{
    version     2.0;
    format      ascii;
    arch        "LSB;label=32;scalar=64";
    class       volScalarField;
    location    "300";
    object      T;
}
// * * * * * * * * * * * * * * * * * * * * * * * * * * * * * * * * * * * * * //

dimensions      [0 0 0 1 0 0 0];

internalField   nonuniform List<scalar> 
228864
(
303.686
303.368
303.18
303.079
302.992
302.927
302.902
302.821
302.836
302.887
302.962
303.061
303.306
303.463
303.168
303.042
302.954
302.893
302.874
302.903
302.922
302.987
303.082
303.248
303.064
302.873
302.864
302.845
302.837
302.836
302.842
302.852
302.85
303.055
303.049
302.841
302.847
302.844
302.836
302.843
302.85
302.849
302.842
303.047
303.058
302.85
302.86
302.862
302.852
302.378
302.374
302.385
302.41
302.454
302.465
302.421
302.396
302.386
302.389
302.428
302.424
302.436
302.463
302.506
302.612
302.576
302.552
302.539
302.54
302.769
302.764
302.775
302.794
302.82
303.575
303.563
303.552
303.548
303.561
303.747
303.737
303.762
303.81
303.874
304.01
303.888
303.774
303.718
303.679
303.66
303.668
303.611
303.599
303.613
303.644
303.691
303.788
303.527
303.4
303.276
303.154
303.044
302.995
303.012
303.031
303.052
303.071
303.092
303.169
303.141
303.117
303.091
303.064
303.167
303.189
303.21
303.232
303.257
303.328
303.302
303.286
303.272
303.259
303.363
303.364
303.37
303.381
303.401
303.503
303.482
303.476
303.476
303.482
303.517
303.506
303.499
303.499
303.515
303.578
303.635
302.983
302.77
302.676
302.63
302.616
302.669
302.682
302.725
302.798
302.938
303.479
303.7
303.058
302.827
302.686
302.613
302.591
302.585
302.615
302.712
302.891
303.17
303.03
302.757
302.577
302.478
302.445
302.392
302.426
302.531
302.717
302.996
302.971
302.687
302.497
302.389
302.351
302.331
302.368
302.478
302.67
302.956
302.96
302.671
302.477
302.366
302.327
302.403
302.445
302.566
302.778
303.087
303.083
302.776
302.567
302.447
302.404
302.432
302.473
302.591
302.797
303.1
303.134
302.833
302.631
302.516
302.476
302.543
302.579
302.688
302.882
303.174
303.326
303.028
302.834
302.727
302.692
302.712
302.738
302.823
302.982
303.237
303.91
304.002
303.955
303.921
303.89
303.875
303.885
303.976
303.969
304.009
304.079
304.166
304.285
304.127
304.007
303.935
303.88
303.85
303.855
303.737
303.737
303.796
303.893
304.013
304.186
304.052
303.885
303.775
303.688
303.638
303.634
303.563
303.559
303.601
303.675
303.769
303.935
303.625
303.47
303.321
303.181
303.057
303.003
303.011
303.032
303.056
303.08
303.105
303.179
303.146
303.118
303.089
303.061
303.167
303.189
303.211
303.234
303.262
303.335
303.307
303.291
303.279
303.269
303.395
303.385
303.38
303.384
303.403
303.476
303.461
303.469
303.493
303.526
303.474
303.42
303.379
303.359
303.368
303.288
303.27
303.273
303.29
303.313
303.187
303.187
303.19
303.2
303.222
303.152
303.123
303.101
303.082
303.064
302.963
302.987
303.013
303.038
303.066
302.995
302.967
302.943
302.919
302.899
302.901
302.957
303.095
303.26
303.432
303.59
303.614
303.314
303.151
303.011
302.907
302.869
302.969
303.004
303.104
303.235
303.406
303.633
303.477
303.3
303.181
303.074
302.989
302.958
303.662
303.749
303.808
303.72
303.752
303.747
303.893
303.98
304.124
304.272
304.394
304.077
303.373
303.094
302.919
302.826
302.797
302.783
302.819
302.935
303.144
303.457
303.304
302.99
302.779
302.659
302.619
302.552
302.594
302.719
302.937
303.255
303.219
302.897
302.674
302.546
302.5
302.474
302.519
302.649
302.874
303.198
303.202
302.874
302.646
302.515
302.468
302.535
302.584
302.724
302.966
303.309
303.303
302.964
302.725
302.586
302.537
302.569
302.616
302.752
302.989
303.325
303.367
303.032
302.799
302.666
302.62
302.695
302.737
302.864
303.089
303.418
303.577
303.242
303.019
302.893
302.853
302.871
302.901
303.003
303.192
303.49
304.221
304.308
304.248
304.196
304.149
304.122
304.129
304.19
304.187
304.238
304.324
304.424
304.54
304.398
304.285
304.191
304.114
304.069
304.07
303.931
303.935
304.006
304.12
304.253
304.409
304.284
304.125
303.996
303.89
303.825
303.817
303.693
303.702
303.783
303.91
304.059
304.237
304.122
303.934
303.791
303.672
303.599
303.587
303.513
303.518
303.584
303.694
303.827
304.028
303.921
303.719
303.599
303.502
303.444
303.439
303.339
303.342
303.405
303.511
303.638
303.852
303.505
303.337
303.161
302.992
302.853
302.797
302.798
302.816
302.838
302.86
302.885
302.959
302.926
302.9
302.875
302.852
302.965
302.98
302.997
303.017
303.044
303.117
303.091
303.082
303.08
303.082
303.225
303.196
303.174
303.167
303.181
303.246
303.238
303.261
303.308
303.367
303.287
303.225
303.177
303.153
303.159
303.079
303.063
303.07
303.092
303.12
302.99
302.986
302.986
302.992
303.012
302.942
302.915
302.895
302.879
302.865
302.765
302.785
302.808
302.83
302.857
302.789
302.764
302.742
302.722
302.705
302.713
302.766
302.903
303.073
303.253
303.416
303.428
303.126
302.965
302.826
302.723
302.687
302.77
302.806
302.912
303.055
303.22
303.516
303.441
303.116
302.967
302.846
302.763
302.735
302.834
302.859
302.941
303.06
303.208
303.54
303.55
303.28
303.137
303.026
302.948
302.921
302.869
302.89
302.954
303.048
303.17
303.441
303.261
303.07
302.982
302.908
302.854
302.835
302.747
302.763
302.812
302.884
302.977
303.204
303.181
302.851
302.747
302.675
302.629
302.614
302.653
302.668
302.712
302.782
302.892
303.3
303.478
302.906
302.73
302.628
302.574
302.558
302.646
302.666
302.733
302.86
303.068
303.672
303.841
303.195
302.97
302.834
302.762
302.741
302.815
302.838
302.915
303.064
303.308
303.997
304.144
303.403
303.139
302.978
302.895
302.87
302.931
302.964
303.074
303.278
303.595
304.358
304.445
304.379
304.321
304.267
304.234
304.24
303.411
303.056
302.801
302.652
302.599
302.605
302.655
302.802
303.054
303.406
303.431
303.08
302.831
302.686
302.634
302.691
302.739
302.881
303.126
303.474
303.531
303.186
302.946
302.81
302.763
302.931
302.974
303.107
303.345
303.691
303.816
303.448
303.194
303.05
303.003
302.84
302.888
303.033
303.285
303.644
303.584
303.221
302.963
302.813
302.759
302.706
302.759
302.912
303.174
303.537
303.511
303.147
302.883
302.727
302.671
302.67
302.725
302.881
303.147
303.512
304.35
304.344
304.382
304.444
304.509
304.58
304.786
304.67
304.562
304.466
304.406
304.4
304.285
304.287
304.342
304.431
304.534
304.648
304.631
304.478
304.342
304.222
304.145
304.132
304.021
304.03
304.103
304.22
304.355
304.505
304.435
304.267
304.118
303.987
303.901
303.885
303.779
303.792
303.875
304.005
304.154
304.322
304.233
304.062
303.909
303.773
303.686
303.667
303.567
303.582
303.667
303.8
303.953
304.129
304.049
303.857
303.705
303.576
303.496
303.481
303.407
303.416
303.489
303.609
303.752
303.961
303.883
303.673
303.526
303.404
303.329
303.315
303.231
303.239
303.302
303.408
303.536
303.75
303.67
303.456
303.329
303.226
303.165
303.156
303.072
303.064
303.086
303.131
303.189
303.048
303.02
303
302.993
303.005
302.942
302.92
302.911
302.91
302.912
302.798
302.812
302.827
302.845
302.869
302.785
302.757
302.734
302.712
302.691
302.642
302.657
302.675
302.694
302.716
302.666
302.642
302.622
302.604
302.588
302.644
302.665
302.687
302.709
302.735
302.825
302.795
302.775
302.757
302.741
302.862
302.862
302.865
302.876
302.898
302.964
302.944
302.946
302.961
302.983
303.13
303.075
303.034
303.015
303.026
303.097
303.097
303.152
303.247
303.365
303.581
303.247
303.091
302.923
302.765
302.638
302.588
302.568
302.6
302.696
302.827
302.978
303.253
303.341
303.053
302.896
302.757
302.658
302.622
302.588
302.612
302.685
302.796
302.933
303.245
303.348
303.02
302.877
302.761
302.683
302.658
302.621
302.64
302.702
302.8
302.926
303.246
303.334
303.016
302.885
302.783
302.717
302.696
302.786
302.808
302.876
302.978
303.11
303.432
303.328
303.019
302.901
302.813
302.754
302.735
302.805
302.826
302.883
302.967
303.073
303.339
303.177
302.984
302.901
302.831
302.781
302.763
302.673
302.688
302.736
302.81
302.904
303.126
303.083
302.799
302.697
302.624
302.578
302.565
302.478
302.492
302.536
302.614
302.733
303.09
303.24
302.8
302.665
302.581
302.534
302.519
302.536
302.551
302.603
302.704
302.875
303.405
303.572
303.016
302.824
302.707
302.647
302.629
302.729
302.749
302.816
302.944
303.154
303.75
303.93
303.278
303.05
302.911
302.838
302.817
302.905
302.928
303.006
303.157
303.404
304.106
304.292
303.503
303.219
303.045
302.954
302.928
302.993
303.029
303.148
303.367
303.704
304.498
304.64
303.819
303.464
303.228
303.098
303.059
303.095
303.144
303.296
303.561
303.939
303.76
303.387
303.123
302.97
302.917
302.84
302.894
303.052
303.322
303.696
303.647
303.272
302.999
302.837
302.778
302.748
302.805
302.969
303.244
303.618
303.621
303.244
302.967
302.802
302.742
302.825
302.886
303.059
303.347
303.732
303.728
303.345
303.059
302.888
302.826
302.863
302.922
303.091
303.375
303.759
303.812
303.426
303.146
302.98
302.921
303.007
303.06
303.22
303.494
303.877
304.069
303.676
303.397
303.236
303.182
303.147
303.189
303.327
303.575
303.94
304.779
304.878
304.794
304.711
304.629
304.576
304.572
304.628
304.632
304.702
304.807
304.918
305.026
304.893
304.782
304.673
304.574
304.51
304.503
304.36
304.368
304.45
304.573
304.707
304.844
304.725
304.582
304.447
304.326
304.248
304.235
304.105
304.117
304.204
304.335
304.478
304.626
304.518
304.363
304.217
304.086
304
303.983
303.877
303.89
303.979
304.113
304.26
304.41
304.311
304.152
304.002
303.867
303.779
303.761
303.671
303.684
303.771
303.905
304.054
304.21
304.116
303.951
303.8
303.665
303.579
303.561
303.478
303.493
303.578
303.713
303.867
304.04
303.965
303.775
303.621
303.49
303.408
303.393
303.32
303.33
303.41
303.54
303.693
303.88
303.776
303.57
303.427
303.309
303.237
303.226
303.164
303.17
303.236
303.348
303.486
303.696
303.613
303.403
303.271
303.169
303.111
303.104
303.026
303.028
303.074
303.159
303.27
303.482
303.181
303.028
302.872
302.724
302.607
302.56
302.563
302.578
302.596
302.614
302.635
302.698
302.671
302.648
302.627
302.607
302.702
302.717
302.733
302.752
302.776
302.844
302.82
302.809
302.804
302.802
302.925
302.903
302.889
302.887
302.902
302.96
302.95
302.966
303.001
303.049
302.995
302.955
302.929
302.921
302.934
302.866
302.848
302.845
302.852
302.867
302.772
302.774
302.781
302.793
302.813
302.757
302.732
302.713
302.696
302.681
302.612
302.63
302.65
302.67
302.693
302.641
302.619
302.601
302.583
302.568
302.569
302.609
302.709
302.836
302.975
303.107
303.12
302.874
302.749
302.648
302.575
302.548
302.538
302.567
302.653
302.774
302.918
303.178
303.102
302.823
302.697
302.599
302.534
302.512
302.537
302.561
302.634
302.742
302.876
303.168
303.076
302.787
302.669
302.579
302.521
302.502
302.549
302.569
302.629
302.723
302.844
303.148
303.06
302.766
302.657
302.577
302.526
302.509
302.577
302.595
302.648
302.732
302.844
303.151
303.232
302.926
302.812
302.725
302.67
302.652
302.609
302.624
302.671
302.746
302.848
303.139
303.227
302.933
302.829
302.752
302.701
302.685
302.736
302.755
302.809
302.886
302.983
303.242
303.088
302.897
302.817
302.75
302.703
302.687
302.596
302.609
302.655
302.727
302.821
303.043
302.998
302.735
302.636
302.564
302.52
302.507
302.429
302.442
302.483
302.554
302.659
302.962
302.965
302.626
302.512
302.441
302.402
302.391
302.454
302.467
302.513
302.597
302.735
303.149
303.278
302.809
302.651
302.557
302.509
302.495
302.592
302.609
302.668
302.781
302.967
303.482
303.696
303.125
302.923
302.799
302.734
302.715
302.844
302.865
302.935
303.07
303.292
303.917
304.143
303.437
303.192
303.044
302.967
302.944
302.972
302.997
303.083
303.248
303.518
304.287
304.446
303.606
303.302
303.112
303.013
302.984
303.047
303.079
303.188
303.394
303.719
304.605
304.767
303.836
303.489
303.265
303.145
303.109
303.235
303.28
303.427
303.688
304.066
304.918
305.014
304.927
304.836
304.745
304.685
304.68
303.842
303.45
303.152
302.973
302.907
302.913
302.976
303.154
303.449
303.838
303.873
303.48
303.186
303.01
302.946
303.012
303.071
303.244
303.535
303.928
303.997
303.603
303.319
303.152
303.094
303.291
303.345
303.513
303.799
304.194
304.326
303.923
303.626
303.451
303.393
303.195
303.252
303.425
303.719
304.12
304.049
303.647
303.346
303.166
303.102
303.039
303.104
303.287
303.591
303.989
303.954
303.557
303.253
303.068
303
302.998
303.065
303.25
303.557
303.953
304.786
304.792
304.86
304.962
305.06
305.148
305.259
305.157
305.046
304.934
304.856
304.841
304.725
304.735
304.808
304.915
305.026
305.129
305.046
304.92
304.795
304.675
304.592
304.576
304.459
304.471
304.553
304.674
304.804
304.935
304.804
304.671
304.541
304.418
304.333
304.317
304.202
304.216
304.302
304.429
304.567
304.704
304.575
304.44
304.307
304.182
304.098
304.081
303.97
303.985
304.072
304.202
304.342
304.484
304.369
304.227
304.091
303.966
303.882
303.866
303.759
303.774
303.86
303.99
304.133
304.28
304.179
304.029
303.889
303.765
303.684
303.67
303.567
303.581
303.664
303.792
303.938
304.093
304.022
303.858
303.708
303.577
303.494
303.477
303.397
303.411
303.494
303.626
303.779
303.95
303.866
303.691
303.541
303.415
303.337
303.323
303.234
303.245
303.318
303.441
303.59
303.777
303.702
303.508
303.365
303.252
303.187
303.178
303.146
303.143
303.192
303.286
303.414
303.617
303.51
303.297
303.182
303.1
303.058
303.058
302.997
302.992
303.026
303.094
303.189
303.399
303.317
303.12
303.047
303.002
302.983
302.991
302.921
302.905
302.904
302.916
302.942
302.855
302.847
302.847
302.854
302.872
302.827
302.804
302.789
302.779
302.772
302.707
302.722
302.738
302.757
302.779
302.728
302.705
302.684
302.664
302.646
302.616
302.63
302.647
302.664
302.683
302.78
302.759
302.741
302.724
302.708
302.741
302.759
302.779
302.8
302.821
302.868
302.842
302.821
302.801
302.782
302.837
302.85
302.866
302.885
302.908
302.949
302.925
302.908
302.896
302.89
302.96
302.954
302.958
302.97
302.991
303.045
303.026
303.023
303.036
303.072
303.23
303.024
302.94
302.86
302.789
302.728
302.698
302.681
302.7
302.75
302.821
302.919
303.061
303.087
302.879
302.769
302.682
302.621
302.595
302.573
302.588
302.633
302.702
302.798
303.037
303.056
302.791
302.682
302.6
302.546
302.528
302.504
302.517
302.56
302.627
302.72
302.975
303.012
302.738
302.631
302.551
302.5
302.485
302.456
302.469
302.51
302.576
302.668
302.932
302.988
302.708
302.605
302.529
302.482
302.468
302.435
302.447
302.486
302.551
302.642
302.912
302.978
302.696
302.598
302.528
302.485
302.471
302.535
302.551
302.597
302.671
302.772
303.064
302.986
302.709
302.617
302.551
302.511
302.497
302.565
302.578
302.621
302.687
302.78
303.055
303.135
302.855
302.761
302.691
302.645
302.631
302.653
302.67
302.72
302.794
302.886
303.14
303.02
302.826
302.741
302.67
302.624
302.609
302.521
302.533
302.576
302.648
302.744
302.977
302.929
302.667
302.569
302.499
302.458
302.446
302.382
302.393
302.43
302.497
302.596
302.88
302.846
302.548
302.451
302.39
302.357
302.347
302.34
302.349
302.379
302.437
302.532
302.836
302.995
302.638
302.518
302.445
302.408
302.397
302.439
302.451
302.493
302.576
302.715
303.121
303.379
302.898
302.73
302.628
302.576
302.561
302.738
302.755
302.816
302.933
303.125
303.671
303.967
303.336
303.119
302.987
302.918
302.898
303.024
303.048
303.129
303.283
303.532
304.251
304.369
303.58
303.306
303.138
303.051
303.025
303.03
303.058
303.154
303.337
303.633
304.476
304.67
303.758
303.434
303.231
303.123
303.091
303.181
303.217
303.338
303.561
303.908
304.864
304.933
303.974
303.609
303.368
303.236
303.196
303.332
303.381
303.537
303.811
304.197
305.063
305.21
304.393
303.998
303.707
303.535
303.479
303.544
303.604
303.789
304.101
304.512
304.294
303.881
303.571
303.387
303.323
303.232
303.298
303.488
303.803
304.216
304.15
303.741
303.423
303.23
303.159
303.122
303.192
303.386
303.704
304.108
304.108
303.702
303.383
303.188
303.116
303.22
303.292
303.493
303.821
304.234
304.235
303.821
303.495
303.295
303.221
303.265
303.336
303.535
303.861
304.281
304.354
303.927
303.601
303.405
303.334
303.438
303.501
303.689
304.008
304.433
304.661
304.236
303.914
303.721
303.656
303.627
303.683
303.861
304.161
304.559
305.356
305.415
305.326
305.21
305.085
304.998
304.978
305.045
305.064
305.15
305.265
305.372
305.458
305.359
305.266
305.156
305.043
304.961
304.943
304.811
304.821
304.905
305.02
305.132
305.228
305.128
305.018
304.899
304.781
304.699
304.683
304.549
304.559
304.639
304.752
304.863
304.961
304.874
304.76
304.639
304.521
304.438
304.422
304.308
304.316
304.395
304.507
304.619
304.72
304.641
304.523
304.399
304.281
304.199
304.184
304.086
304.094
304.17
304.283
304.4
304.509
304.431
304.306
304.179
304.06
303.98
303.966
303.882
303.888
303.962
304.075
304.197
304.318
304.241
304.106
303.974
303.856
303.778
303.765
303.694
303.699
303.769
303.88
304.008
304.142
304.064
303.917
303.782
303.666
303.593
303.583
303.496
303.506
303.581
303.703
303.845
303.999
303.932
303.768
303.622
303.497
303.42
303.407
303.354
303.358
303.426
303.541
303.682
303.847
303.766
303.59
303.446
303.331
303.264
303.255
303.223
303.221
303.273
303.371
303.503
303.687
303.603
303.406
303.301
303.234
303.204
303.208
303.122
303.116
303.143
303.206
303.304
303.511
303.421
303.212
303.125
303.07
303.046
303.053
303.105
303.086
303.087
303.105
303.151
303.325
303.267
303.2
303.212
303.24
303.268
303.291
303.23
303.207
303.178
303.146
303.128
303.178
303.083
303.03
302.992
302.967
302.956
302.956
302.98
302.992
303.004
303.015
303.025
303.052
303.037
303.021
303.004
302.986
303.003
303.027
303.049
303.069
303.086
303.119
303.098
303.075
303.048
303.02
303.048
303.076
303.105
303.13
303.15
303.183
303.161
303.135
303.105
303.079
303.592
303.733
303.86
303.952
303.995
303.944
303.91
303.837
303.733
303.612
303.627
303.72
303.798
303.852
303.877
303.788
303.772
303.737
303.684
303.619
303.584
303.624
303.655
303.676
303.684
303.616
303.613
303.603
303.585
303.56
303.451
303.441
303.421
303.389
303.36
303.349
303.22
303.238
303.284
303.336
303.374
303.391
302.938
302.936
302.938
302.956
303.001
303.082
303.06
302.963
302.922
302.914
302.917
302.919
302.66
302.673
302.714
302.777
302.878
303.041
303.005
302.823
302.735
302.679
302.646
302.635
302.55
302.563
302.599
302.657
302.74
302.973
302.906
302.689
302.617
302.568
302.537
302.525
302.476
302.489
302.524
302.581
302.662
302.902
302.84
302.614
302.543
302.494
302.462
302.451
302.427
302.438
302.474
302.531
302.613
302.863
302.805
302.568
302.493
302.443
302.412
302.402
302.403
302.414
302.449
302.505
302.589
302.847
302.904
302.635
302.546
302.485
302.447
302.436
302.406
302.415
302.448
302.502
302.583
302.838
302.913
302.652
302.568
302.51
302.475
302.464
302.524
302.536
302.574
302.634
302.72
302.979
303.052
302.784
302.696
302.631
302.589
302.576
302.587
302.602
302.648
302.718
302.808
303.054
302.972
302.785
302.679
302.596
302.546
302.531
302.577
302.597
302.659
302.753
302.863
302.993
302.982
302.836
302.716
302.614
302.549
302.529
302.477
302.495
302.555
302.657
302.787
302.953
302.918
302.722
302.593
302.5
302.448
302.432
302.398
302.411
302.456
302.538
302.66
302.88
302.853
302.597
302.486
302.416
302.379
302.368
302.347
302.356
302.387
302.446
302.545
302.86
303.011
302.634
302.518
302.449
302.414
302.405
302.585
302.598
302.644
302.735
302.884
303.353
303.737
303.165
302.985
302.875
302.819
302.802
302.982
303.002
303.072
303.204
303.418
304.089
304.401
303.612
303.359
303.202
303.118
303.094
303.119
303.146
303.241
303.419
303.704
304.518
304.596
303.728
303.422
303.232
303.131
303.102
303.196
303.23
303.345
303.558
303.892
304.823
305.046
304.073
303.71
303.472
303.341
303.301
303.284
303.324
303.459
303.704
304.072
305.06
305.104
304.128
303.748
303.492
303.348
303.304
303.435
303.482
303.637
303.908
304.298
305.278
305.504
304.541
304.135
303.841
303.668
303.614
303.771
303.83
304.015
304.326
304.738
305.562
305.607
305.519
305.392
305.249
305.147
305.121
304.359
303.936
303.601
303.394
303.318
303.325
303.399
303.604
303.939
304.363
304.416
303.982
303.646
303.44
303.365
303.444
303.514
303.716
304.053
304.494
304.579
304.136
303.806
303.61
303.543
303.786
303.85
304.046
304.376
304.811
304.957
304.512
304.173
303.97
303.902
303.659
303.727
303.928
304.268
304.719
304.632
304.178
303.832
303.622
303.547
303.473
303.548
303.759
304.103
304.544
304.486
304.055
303.714
303.504
303.425
303.423
303.499
303.709
304.048
304.474
305.213
305.243
305.359
305.516
305.65
305.737
305.715
305.647
305.551
305.434
305.336
305.306
305.198
305.221
305.313
305.43
305.531
305.605
305.376
305.302
305.21
305.107
305.026
305.007
304.91
304.924
305.006
305.116
305.219
305.303
305.098
305.029
304.944
304.849
304.777
304.765
304.649
304.661
304.737
304.841
304.94
305.023
304.847
304.777
304.691
304.6
304.532
304.522
304.406
304.417
304.49
304.592
304.692
304.777
304.633
304.555
304.464
304.371
304.305
304.297
304.183
304.192
304.263
304.366
304.471
304.564
304.446
304.353
304.255
304.159
304.095
304.088
303.976
303.984
304.053
304.157
304.269
304.375
304.274
304.165
304.058
303.962
303.901
303.895
303.786
303.792
303.857
303.961
304.079
304.201
304.113
303.985
303.873
303.78
303.725
303.722
303.616
303.619
303.677
303.777
303.898
304.037
303.974
303.824
303.695
303.59
303.528
303.522
303.437
303.441
303.507
303.617
303.753
303.911
303.829
303.663
303.539
303.446
303.397
303.396
303.3
303.3
303.351
303.447
303.576
303.75
303.672
303.486
303.382
303.316
303.285
303.291
303.334
303.314
303.318
303.343
303.4
303.569
303.485
303.311
303.254
303.229
303.226
303.241
303.17
303.153
303.156
303.179
303.233
303.411
303.343
303.265
303.273
303.3
303.329
303.354
304.257
304.176
304.006
303.791
303.595
303.371
303.309
303.556
303.749
303.95
304.104
304.176
304.089
304.026
303.888
303.702
303.517
303.266
303.452
304.203
304.66
305.076
305.358
305.473
305.238
305.165
304.989
304.72
304.4
304.452
304.702
304.907
305.041
305.097
304.918
304.881
304.787
304.644
304.462
304.4
304.52
304.612
304.672
304.695
304.459
304.451
304.419
304.366
304.294
304.234
304.283
304.315
304.332
304.333
305.091
305.095
305.071
305.026
304.951
305.011
305.11
305.181
305.224
305.235
305.556
305.531
305.454
305.334
305.174
305.291
305.536
305.723
305.843
305.891
306.166
306.1
305.93
305.662
305.314
305.258
305.72
306.08
306.305
306.395
306.777
306.639
306.282
305.71
305.014
303.689
304.193
304.339
304.487
304.578
304.598
304.607
304.406
304.382
304.315
304.162
303.933
303.659
303.426
303.57
303.708
303.814
303.866
303.887
303.779
303.755
303.686
303.556
303.404
303.273
303.143
303.154
303.206
303.273
303.317
303.334
303.28
303.266
303.221
303.15
303.091
303.088
303.027
302.925
302.891
302.892
302.898
302.899
302.878
302.877
302.87
302.863
302.882
302.988
302.952
302.772
302.695
302.648
302.619
302.61
302.585
302.593
302.619
302.66
302.727
302.898
302.845
302.644
302.581
302.539
302.512
302.503
302.481
302.489
302.513
302.551
302.606
302.793
302.785
302.573
302.509
302.466
302.439
302.431
302.413
302.42
302.443
302.482
302.539
302.739
302.753
302.529
302.461
302.417
302.391
302.383
302.378
302.387
302.417
302.467
302.544
302.788
302.734
302.504
302.434
302.39
302.365
302.358
302.38
302.389
302.417
302.465
302.539
302.777
302.846
302.603
302.527
302.475
302.444
302.434
302.485
302.496
302.531
302.587
302.666
302.911
302.976
302.718
302.634
302.572
302.533
302.52
302.522
302.536
302.578
302.645
302.734
302.972
302.895
302.692
302.599
302.529
302.488
302.476
302.449
302.462
302.504
302.575
302.67
302.874
302.94
302.755
302.648
302.562
302.511
302.496
302.452
302.466
302.512
302.593
302.699
302.892
302.847
302.639
302.537
302.464
302.423
302.41
302.375
302.385
302.42
302.483
302.578
302.801
302.758
302.524
302.437
302.382
302.353
302.344
302.335
302.342
302.369
302.421
302.509
302.779
302.874
302.564
302.464
302.402
302.37
302.361
302.464
302.476
302.52
302.61
302.766
303.28
303.743
303.126
302.923
302.798
302.733
302.715
303.003
303.027
303.105
303.25
303.48
304.144
304.454
303.734
303.474
303.305
303.212
303.184
303.354
303.387
303.495
303.688
303.971
304.713
304.689
303.817
303.527
303.342
303.243
303.214
303.221
303.254
303.363
303.567
303.886
304.779
305.03
304.087
303.737
303.507
303.38
303.343
303.51
303.553
303.696
303.95
304.321
305.261
305.259
304.287
303.905
303.644
303.496
303.451
303.41
303.456
303.607
303.874
304.263
305.258
305.499
304.534
304.127
303.834
303.662
303.609
303.823
303.881
304.066
304.373
304.777
305.681
305.671
304.748
304.337
304.03
303.845
303.787
303.913
303.975
304.169
304.492
304.909
305.712
305.86
305.09
304.667
304.331
304.125
304.057
304.038
304.104
304.309
304.653
305.098
304.863
304.399
304.048
303.841
303.769
303.662
303.736
303.95
304.305
304.767
304.671
304.222
303.871
303.655
303.576
303.533
303.61
303.825
304.17
304.603
304.591
304.16
303.818
303.603
303.524
303.632
303.637
303.686
303.771
303.887
303.96
303.847
303.764
303.715
303.708
303.927
303.933
303.983
304.066
304.17
304.532
304.43
304.339
304.281
304.269
304.702
304.716
304.794
304.903
305.006
305.93
305.777
305.588
305.438
305.385
305.505
305.542
305.653
305.771
305.855
305.902
305.801
305.744
305.654
305.537
305.433
305.398
305.282
305.3
305.379
305.467
305.531
305.564
305.488
305.436
305.359
305.264
305.184
305.163
305.031
305.038
305.101
305.173
305.225
305.246
305.152
305.105
305.035
304.95
304.882
304.872
304.736
304.742
304.797
304.867
304.921
304.945
304.896
304.849
304.78
304.699
304.637
304.628
304.528
304.527
304.58
304.651
304.712
304.744
304.682
304.627
304.551
304.469
304.409
304.404
304.316
304.315
304.368
304.443
304.515
304.565
304.499
304.427
304.342
304.256
304.198
304.193
304.119
304.116
304.167
304.247
304.33
304.403
304.331
304.24
304.145
304.057
304.001
303.998
303.941
303.936
303.983
304.062
304.153
304.248
304.173
304.061
303.959
303.873
303.823
303.822
303.787
303.778
303.817
303.888
303.98
304.099
304.019
303.886
303.785
303.709
303.668
303.672
303.579
303.575
303.619
303.701
303.81
303.955
303.891
303.736
303.619
303.531
303.484
303.486
303.48
303.468
303.495
303.556
303.649
303.814
303.734
303.558
303.46
303.397
303.369
303.376
303.417
303.397
303.4
303.424
303.479
303.64
303.563
303.486
303.49
303.516
303.545
303.574
303.493
303.465
303.434
303.407
303.4
303.478
303.412
303.331
303.338
303.365
303.395
303.421
304.345
304.252
304.063
303.836
303.637
303.431
303.529
304.266
304.81
305.355
305.742
305.909
305.804
305.655
305.299
304.787
304.257
303.482
303.468
304.255
304.75
305.214
305.531
305.663
307.083
306.927
306.531
305.895
305.127
303.691
304.028
306.078
306.981
307.634
308.008
308.156
307.784
307.645
307.29
306.686
305.864
304.023
304.686
304.884
305.071
305.178
305.213
305.235
305.694
305.794
305.853
305.881
305.878
305.996
305.99
305.944
305.863
305.744
305.907
306.092
306.226
306.312
306.342
306.729
306.68
306.551
306.348
306.07
306.12
306.516
306.805
306.985
307.058
307.332
307.238
307.006
306.621
306.086
306.825
307.352
307.7
307.902
307.985
307.722
307.657
307.497
307.23
306.84
306.765
307.044
307.238
307.359
307.407
307.031
307.007
306.928
306.797
306.607
306.469
306.6
306.681
306.726
306.731
306.651
306.66
306.633
306.57
306.454
305.898
305.861
305.8
305.68
305.478
305.261
304.255
304.783
305.155
305.38
305.494
305.541
304.956
304.923
304.834
304.64
304.327
303.921
303.576
303.961
304.311
304.552
304.676
304.717
304.238
304.206
304.112
303.924
303.67
303.413
303.274
303.509
303.763
303.958
304.059
304.091
303.681
303.658
303.584
303.45
303.292
303.174
303.104
303.224
303.374
303.501
303.572
303.594
303.228
303.216
303.173
303.102
303.038
303.035
302.987
302.996
303.061
303.128
303.168
303.178
302.855
302.854
302.847
302.835
302.844
302.941
302.895
302.809
302.808
302.822
302.83
302.831
302.561
302.569
302.592
302.629
302.688
302.846
302.801
302.653
302.601
302.568
302.548
302.542
302.461
302.468
302.49
302.523
302.574
302.748
302.71
302.548
302.5
302.47
302.452
302.446
302.398
302.404
302.424
302.458
302.512
302.698
302.707
302.496
302.435
302.396
302.375
302.368
302.357
302.362
302.38
302.413
302.468
302.664
302.682
302.469
302.407
302.37
302.349
302.343
302.361
302.369
302.393
302.435
302.502
302.722
302.786
302.561
302.491
302.444
302.416
302.407
302.447
302.457
302.489
302.542
302.618
302.85
302.91
302.664
302.578
302.515
302.477
302.466
302.464
302.476
302.516
302.585
302.68
302.916
302.84
302.623
302.534
302.471
302.434
302.424
302.401
302.411
302.446
302.508
302.595
302.809
302.769
302.551
302.469
302.412
302.38
302.371
302.411
302.423
302.461
302.526
302.617
302.824
302.775
302.562
302.477
302.419
302.386
302.375
302.344
302.352
302.38
302.431
302.508
302.723
302.672
302.462
302.391
302.348
302.324
302.317
302.305
302.31
302.331
302.37
302.437
302.645
302.79
302.501
302.415
302.368
302.345
302.339
302.414
302.426
302.468
302.556
302.724
303.28
303.777
303.111
302.875
302.735
302.667
302.648
302.996
303.022
303.109
303.27
303.523
304.199
304.501
303.818
303.55
303.373
303.275
303.245
303.453
303.488
303.602
303.799
304.08
304.75
304.975
304.348
304.058
303.842
303.712
303.67
303.535
303.573
303.697
303.911
304.208
304.94
304.957
304.042
303.721
303.508
303.392
303.358
303.538
303.578
303.712
303.95
304.294
305.201
305.453
304.61
304.25
303.985
303.83
303.783
303.744
303.794
303.958
304.238
304.624
305.512
305.509
304.577
304.179
303.891
303.721
303.668
303.905
303.963
304.148
304.45
304.846
305.702
305.874
305.13
304.74
304.422
304.221
304.156
304.049
304.112
304.313
304.634
305.035
305.85
305.835
304.969
304.556
304.237
304.041
303.978
304.195
304.26
304.465
304.794
305.202
305.993
305.998
305.275
304.852
304.506
304.292
304.222
304.162
304.23
304.439
304.791
305.246
306.01
306.14
306.052
305.898
305.692
305.523
305.458
304.799
304.372
304.025
303.808
303.728
303.737
303.815
304.034
304.384
304.82
304.91
304.449