/*--------------------------------*- C++ -*----------------------------------*\
| =========                 |                                                 |
| \\      /  F ield         | OpenFOAM: The Open Source CFD Toolbox           |
|  \\    /   O peration     | Version:  2212                                  |
|   \\  /    A nd           | Website:  www.openfoam.com                      |
|    \\/     M anipulation  |                                                 |
\*---------------------------------------------------------------------------*/
FoamFile
{
    version     2.0;
    format      ascii;
    arch        "LSB;label=32;scalar=64";
    class       volScalarField;
    location    "300";
    object      T;
}
// * * * * * * * * * * * * * * * * * * * * * * * * * * * * * * * * * * * * * //

dimensions      [0 0 0 1 0 0 0];

internalField   nonuniform List<scalar> 
248319
(
311.305
311.148
310.938
310.847
310.765
310.705
310.684
310.765
310.799
310.897
311.027
311.156
311.316
311.298
311.071
310.921
310.82
310.77
310.766
310.981
311.018
311.081
311.15
311.211
311.274
311.174
311.133
311.059
311.002
310.976
310.968
310.888
310.883
310.897
310.926
310.957
311.147
310.895
310.914
310.872
310.816
310.779
310.774
310.84
310.855
310.885
310.908
310.918
310.862
310.813
310.897
310.908
310.924
310.934
310.938
311.072
311.08
311.101
311.137
311.192
311.321
311.347
311.179
311.106
311.032
310.971
310.943
311.05
311.073
311.136
311.219
311.281
311.145
311.237
311.198
311.074
310.932
310.828
310.793
310.753
310.756
310.808
310.92
311.095
311.272
311.289
311.276
311.248
311.198
311.124
311.065
310.978
310.971
310.955
310.932
310.897
310.845
310.89
310.925
310.945
310.961
310.97
310.972
310.663
310.639
310.603
310.559
310.505
310.44
310.371
310.471
310.561
310.614
310.624
310.622
310.678
310.665
310.603
310.48
310.347
310.248
310.12
310.226
310.383
310.557
310.667
310.698
310.734
310.692
310.553
310.349
310.148
309.993
310.758
310.85
310.853
310.89
310.925
310.939
311.117
311.12
311.135
311.174
311.235
311.309
310.988
311.391
311.401
311.357
311.321
311.308
311.228
311.242
311.282
311.336
311.366
311.078
310.715
311.39
311.403
311.356
311.311
311.294
311.035
311.062
311.138
311.23
311.274
310.828
310.982
311.113
310.991
310.84
310.729
310.691
310.704
310.709
310.762
310.864
311.023
311.107
311.171
311.208
311.217
311.189
311.13
311.078
310.977
310.962
310.931
310.883
310.816
310.729
310.336
310.469
310.578
310.675
310.755
310.813
310.765
310.72
310.663
310.598
310.524
310.439
310.134
310.249
310.348
310.446
310.541
310.628
310.554
310.492
310.42
310.344
310.26
310.164
310.12
310.285
310.422
310.511
310.541
310.544
310.597
310.581
310.505
310.353
310.174
309.97
309.801
310.006
310.221
310.428
310.557
310.592
310.604
310.553
310.389
310.153
309.911
309.677
309.644
309.91
310.162
310.404
310.584
310.647
310.792
310.744
310.598
310.389
310.164
309.945
310.79
310.828
310.831
310.878
310.928
310.948
311.149
311.154
311.173
311.222
311.285
311.294
310.955
311.38
311.462
311.432
311.393
311.378
311.492
311.502
311.523
311.499
311.302
310.456
310.619
311.4
311.48
311.459
311.426
311.414
311.496
311.511
311.554
311.604
311.577
310.389
310.524
311.454
311.444
311.378
311.319
311.294
310.884
310.918
311.019
311.141
311.199
310.573
310.743
310.949
310.821
310.657
310.538
310.497
310.59
310.598
310.658
310.76
310.902
310.907
310.985
311.073
311.126
311.134
311.1
311.064
310.963
310.928
310.867
310.781
310.677
310.555
310.209
310.371
310.514
310.647
310.758
310.835
310.73
310.625
310.485
310.328
310.165
309.997
310.071
310.216
310.349
310.475
310.591
310.686
310.58
310.459
310.32
310.178
310.036
309.891
309.917
310.039
310.154
310.273
310.396
310.515
310.463
310.373
310.278
310.184
310.082
309.965
309.949
310.167
310.335
310.443
310.481
310.486
310.531
310.514
310.436
310.27
310.062
309.785
309.583
309.854
310.11
310.337
310.468
310.502
310.472
310.425
310.258
309.999
309.72
309.437
309.363
309.652
309.934
310.199
310.385
310.444
310.417
310.353
310.174
309.931
309.666
309.387
309.76
310.028
310.269
310.492
310.661
310.725
310.865
310.82
310.692
310.51
310.296
310.052
310.87
310.856
310.847
310.896
310.951
310.974
311.182
311.189
311.213
311.27
311.341
311.34
311.107
311.44
311.528
311.505
311.466
311.451
311.563
311.569
311.572
311.503
311.243
310.568
310.112
311.652
311.839
311.773
311.723
311.708
311.609
311.623
311.668
311.723
311.633
310.133
309.792
311.566
311.983
312.062
312.035
312.018
311.741
311.763
311.813
311.842
311.698
310.17
310.322
311.494
311.463
311.335
311.231
311.192
310.594
310.633
310.745
310.894
310.997
310.338
310.418
310.683
310.564
310.403
310.278
310.235
310.418
310.43
310.506
310.621
310.745
310.623
310.715
310.869
310.978
311.037
311.039
311.026
310.923
310.857
310.75
310.614
310.465
310.309
310.026
310.217
310.399
310.575
310.726
310.829
310.754
310.637
310.47
310.28
310.087
309.896
309.849
310.038
310.225
310.409
310.572
310.69
310.643
310.524
310.373
310.21
310.044
309.877
309.804
309.964
310.122
310.283
310.436
310.563
310.489
310.349
310.198
310.05
309.906
309.763
309.755
309.879
310.001
310.131
310.273
310.417
310.379
310.269
310.158
310.052
309.94
309.811
309.821
310.082
310.271
310.388
310.429
310.433
310.467
310.452
310.376
310.209
309.986
309.651
309.432
309.759
310.036
310.269
310.392
310.421
310.372
310.331
310.17
309.898
309.593
309.275
309.182
309.49
309.801
310.087
310.275
310.329
310.313
310.248
310.052
309.774
309.475
309.176
309.314
309.599
309.867
310.109
310.288
310.354
310.416
310.361
310.221
310.032
309.814
309.566
310.07
310.314
310.507
310.671
310.795
310.846
310.966
310.934
310.846
310.722
310.563
310.348
311.077
310.948
310.897
310.946
311.004
311.031
311.246
311.253
311.28
311.355
311.469
311.527
311.346
311.627
311.646
311.585
311.537
311.522
311.631
311.641
311.669
311.675
311.523
310.855
310.385
311.859
311.961
311.867
311.803
311.785
312.488
312.482
312.425
312.208
311.733
309.912
309.714
311.502
312.044
312.262
312.288
312.283
312.412
312.365
312.165
311.705
310.95
309.301
309.434
311.118
311.778
312.154
312.289
312.311
312.063
312.075
312.059
311.91
311.518
309.879
310.101
311.417
311.406
311.238
311.092
311.04
310.223
310.261
310.377
310.537
310.684
310.14
310.176
310.344
310.258
310.109
309.987
309.945
310.232
310.247
310.335
310.459
310.568
310.299
310.388
310.595
310.762
310.879
310.932
310.949
310.841
310.732
310.573
310.392
310.216
310.061
309.877
310.059
310.253
310.459
310.647
310.78
310.74
310.61
310.423
310.214
310.013
309.821
309.841
310.041
310.233
310.426
310.593
310.706
310.667
310.572
310.431
310.265
310.097
309.9
309.845
310.018
310.192
310.364
310.516
310.629
310.57
310.464
310.324
310.169
310.015
309.859
309.759
309.904
310.051
310.205
310.357
310.488
310.404
310.251
310.094
309.945
309.805
309.671
309.628
309.749
309.874
310.011
310.165
310.328
310.299
310.172
310.05
309.94
309.823
309.689
309.718
310.015
310.217
310.338
310.378
310.382
310.401
310.388
310.318
310.154
309.927
309.549
309.329
309.69
309.975
310.202
310.316
310.342
310.284
310.248
310.1
309.831
309.51
309.166
309.073
309.386
309.712
310.012
310.198
310.247
310.248
310.183
309.975
309.675
309.359
309.062
309.186
309.476
309.766
310.038
310.241
310.315
310.498
310.436
310.284
310.088
309.868
309.615
309.753
309.978
310.168
310.33
310.453
310.502
310.498
310.469
310.405
310.313
310.191
310.023
310.653
310.806
310.882
310.933
310.977
311.002
311.143
311.116
311.065
311.01
310.949
310.848
311.75
311.693
311.516
311.381
311.332
311.329
311.352
311.366
311.413
311.543
311.721
311.823
311.687
311.91
311.763
311.625
311.563
311.548
311.666
311.683
311.75
311.879
311.993
311.259
310.825
312.066
312.046
311.918
311.84
311.818
312.582
312.583
312.554
312.41
312.086
310.324
309.826
311.709
312.208
312.511
312.659
312.701
312.545
312.501
312.321
311.915
311.226
309.452
309.109
310.603
311.509
312.091
312.361
312.429
312.278
312.208
311.918
311.285
310.36
308.995
309.129
310.578
311.388
311.926
312.171
312.235
312.174
312.15
312.014
311.681
311.134
309.598
309.901
311.31
311.444
311.314
311.164
311.105
309.953
309.983
310.083
310.253
310.519
309.999
310.067
310.052
309.985
309.863
309.758
309.721
310.126
310.133
310.204
310.301
310.373
310.139
310.197
310.344
310.503
310.651
310.753
310.806
310.694
310.555
310.381
310.216
310.078
309.948
309.816
309.99
310.155
310.338
310.525
310.67
310.667
310.54
310.363
310.18
310.006
309.812
309.891
310.11
310.261
310.417
310.561
310.662
310.648
310.571
310.462
310.346
310.235
310.003
310.166
310.376
310.44
310.507
310.573
310.628
310.624
310.545
310.432
310.3
310.163
309.98
310.101
310.238
310.332
310.43
310.515
310.58
310.512
310.415
310.292
310.158
310.024
309.879
309.731
309.86
309.994
310.138
310.285
310.418
310.325
310.164
310.003
309.858
309.725
309.6
309.53
309.645
309.768
309.906
310.068
310.245
310.22
310.081
309.952
309.84
309.723
309.587
309.627
309.958
310.167
310.29
310.326
310.33
310.331
310.32
310.255
310.099
309.873
309.466
309.25
309.632
309.913
310.132
310.237
310.259
310.199
310.168
310.029
309.764
309.448
309.093
309.007
309.309
309.639
309.946
310.129
310.173
310.191
310.124
309.907
309.595
309.278
309.001
309.117
309.398
309.695
309.981
310.198
310.277
310.497
310.434
310.276
310.07
309.833
309.565
310.766
310.895
310.963
310.997
311.029
311.047
311.032
310.993
310.915
310.847
310.797
310.69
310.774
310.843
310.91
310.988
311.067
311.107
311.262
311.228
311.161
311.1
311.049
310.992
311.658
311.737
311.759
311.708
311.636
311.611
311.621
311.63
311.688
311.765
311.758
311.676
312.385
312.313
312.173
312.024
311.92
311.887
312.09
312.126
312.248
312.435
312.592
312.625
311.869
312.073
311.875
311.67
311.572
311.55
311.728
311.751
311.847
312.031
312.18
311.458
310.969
312.144
312.22
312.098
311.989
311.959
312.665
312.655
312.568
312.339
311.945
310.375
309.783
311.511
312.076
312.45
312.639
312.692
312.599
312.534
312.283
311.788
311.07
309.356
309.46
311.308
311.951
312.36
312.558
312.612
312.533
312.469
312.212
311.686
310.9
309.201
308.893
310.11
311.109
311.841
312.211
312.306
312.137
312.04
311.636
310.837
309.821
308.791
308.917
310.099
311.002
311.679
312.01
312.095
312.084
312.031
311.822
311.382
310.746
309.379
309.737
311.197
311.541
311.662
311.606
311.566
310.2
310.224
310.334
310.618
310.845
309.924
310.054
310.132
309.97
309.852
309.768
309.739
310.157
310.149
310.174
310.213
310.242
310.155
310.21
310.315
310.419
310.535
310.641
310.699
310.627
310.496
310.34
310.195
310.061
309.927
309.814
309.99
310.158
310.333
310.511
310.651
310.682
310.564
310.394
310.214
310.037
309.843
309.952
310.194
310.351
310.5
310.63
310.716
310.763
310.711
310.63
310.529
310.412
310.12
310.399
310.706
310.775
310.829
310.869
310.891
311.183
311.181
311.172
311.154
311.126
310.865
310.437
310.6
310.62
310.641
310.668
310.696
310.844
310.838
310.838
310.843
310.847
310.78
310.291
310.363
310.408
310.46
310.512
310.558
310.455
310.368
310.263
310.153
310.044
309.927
309.715
309.828
309.948
310.081
310.221
310.352
310.251
310.084
309.925
309.784
309.66
309.546
309.453
309.561
309.678
309.815
309.98
310.166
310.143
309.994
309.86
309.75
309.637
309.504
309.547
309.903
310.117
310.239
310.272
310.275
310.254
310.244
310.185
310.036
309.817
309.396
309.187
309.572
309.845
310.055
310.151
310.17
310.111
310.083
309.951
309.691
309.385
309.043
308.972
309.242
309.564
309.873
310.053
310.095
310.127
310.058
309.836
309.523
309.219
308.979
309.1
309.359
309.647
309.931
310.151
310.235
310.513
310.455
310.309
310.114
309.887
309.628
311.099
311.192
311.237
311.241
311.24
311.245
312.468
312.526
312.659
312.76
312.794
312.781
312.524
312.558
312.573
312.488
312.348
312.285
312.126
312.213
312.429
312.608
312.615
312.537
312.827
312.82
312.639
312.34
312.078
311.983
311.829
311.905
312.182
312.613
313.007
313.252
313.556
312.828
312.262
311.948
311.834
311.813
311.954
311.982
312.116
312.433
312.905
313.428
312.768
312.467
312.206
312.006
311.892
311.862
312.124
312.169
312.34
312.676
313.16
313.753
313.738
313.212
312.791
312.478
312.317
312.275
312.2
312.228
312.322
312.443
312.447
312.425
312.058
312.263
312.416
312.413
312.344
312.315
312.752
312.721
312.598
312.376
312.069
311.624
311.196
311.738
312.169
312.497
312.677
312.732
312.648
312.58
312.34
311.935
311.434
310.863
310.649
311.229
311.764
312.221
312.513
312.603
312.541
312.457
312.13
311.507
310.624
309.088
308.937
310.271
311.244
311.973
312.385
312.501
312.498
312.419
312.103
311.473
310.579
309.06
308.752
309.766
310.779
311.614
312.084
312.211
312.021
311.885
311.365
310.465
309.477
308.677
308.789
309.753
310.68
311.458
311.877
311.985
311.983
311.916
311.649
311.128
310.442
309.231
309.611
311.011
311.468
311.771
311.896
311.914
311.125
311.148
311.237
311.322
311.197
309.876
310.11
310.766
310.595
310.433
310.349
310.325
310.438
310.419
310.406
310.426
310.53
310.227
310.247
310.362
310.473
310.605
310.752
310.851
310.751
310.571
310.381
310.218
310.073
309.93
309.837
310.011
310.184
310.378
310.595
310.795
310.867
310.683
310.463
310.262
310.079
309.892
310.027
310.274
310.443
310.624
310.811
310.959
311.074
310.975
310.842
310.704
310.569
310.244
310.648
311.016
311.097
311.169
311.234
311.277
311.584
311.583
311.578
311.565
311.54
311.265
311.791
311.793
311.657
311.491
311.328
311.204
311.152
311.194
311.249
311.304
311.349
311.312
311.9
311.691
311.435
311.151
310.903
310.733
310.733
310.787
310.868
310.964
311.056
311.2
310.556
310.532
310.534
310.541
310.553
310.57
310.402
310.326
310.241
310.158
310.086
310.034
309.71
309.805
309.912
310.032
310.164
310.291
310.181
310.012
309.856
309.723
309.609
309.506
309.394
309.492
309.603
309.735
309.9
310.091
310.067
309.91
309.775
309.669
309.561
309.433
309.475
309.849
310.064
310.186
310.215
310.218
310.168
310.16
310.106
309.964
309.755
309.335
309.135
309.505
309.766
309.966
310.056
310.072
310.012
309.987
309.858
309.606
309.315
309.009
308.959
309.175
309.473
309.775
309.958
310
310.031
309.958
309.732
309.43
309.157
308.97
309.069
309.294
309.558
309.831
310.05
310.137
310.417
310.365
310.229
310.05
309.847
309.622
311.151
311.215
311.227
311.221
311.219
311.221
312.309
312.395
312.577
312.73
312.737
312.684
313.213
313.089
312.963
312.759
312.591
312.545
313.585
316.677
327.603
362.945
442.26
429.8
347.282
320.33
314.398
313.023
312.907
313.281
315.464
332.094
411.209
394.822
324.522
314.188
313.257
313.082
313.25
313.425
314.209
323.509
392.006
404.033
327.43
314.907
313.724
313.464
313.534
313.902
315.799
332.54
415.333
414.066
332.005
315.909
314.216
314.026
313.94
314.176
314.245
314.395
315.73
329.825
408.914
402.147
326.857
315.23
314.28
314.194
314.077
314.13
314.925
325.4
398.202
404.538
327.223
314.986
313.971
313.882
313.658
314.021
316.423
335.4
421.514
441.733
354.643
322.993
315.817
314.03
315.888
320.977
335.575
374.453
453.221
454.304
375.034
334.634
319.991
315.301
314.159
315.919
323.488
356.076
443.637
424.964
337.869
317.15
314.383
313.981
314.252
314.354
315.598
329.437
409.269
402.683
327.193
315.498
314.577
314.519
314.737
314.774
315.715
327.715
403.933
406.185
328.804
316.058
315.033
314.989
314.987
314.725
314.496
314.212
313.851
313.558
313.482
313.38
313.5
313.831
314.194
314.472
314.682
314.563
314.35
314.069
313.698
313.369
313.248
313.08
313.192
313.524
313.918
314.215
314.415
314.214
314.033
313.729
313.305
312.967
312.861
312.413
312.464
312.678
313.097
313.61
314.033
313.716
313.21
312.797
312.482
312.319
312.277
312.17
312.226
312.417
312.761
313.207
313.7
313.5
312.932
312.497
312.202
312.073
312.045
312.197
312.236
312.39
312.711
313.17
313.975
314.15
313.324
312.765
312.388
312.208
312.163
312.272
312.312
312.471
312.795
313.236
314.246
314.29
313.1
312.722
312.474
312.341
312.303
312.345
312.382
312.519
312.81
313.191
313.667
313.58
313.569
313.525
313.36
313.19
313.128
313.636
313.651
313.672
313.651
313.532
313.397
313.139
313.397
313.619
313.697
313.696
313.686
313.711
313.717
313.701
313.568
313.258
312.819
312.615
313.175
313.548
313.718
313.745
313.738
312.572
312.47
312.145
311.662
311.114
310.546
310.528
311.1
311.655
312.149
312.491
312.607
312.486
312.35
311.88
311.091
310.09
308.87
308.993
310.352
311.32
312.031
312.399
312.494
312.146
311.99
311.443
310.549
309.557
308.681
308.628
309.282
310.208
311.153
311.767
311.948
311.908
311.78
311.285
310.44
309.522
308.727
309.145
310.221
310.934
311.519
311.841
311.926
311.947
311.899
311.71
311.342
310.843
309.535
309.835
311.263
311.592
311.765
311.831
311.846
311.465
311.468
311.468
311.464
311.373
310.157
310.283
311.127
311.144
311.127
311.143
311.149
310.962
310.832
310.661
310.515
310.398
310.274
309.944
310.104
310.255
310.428
310.636
310.849
310.897
310.665
310.426
310.222
310.044
309.878
309.961
310.145
310.332
310.546
310.788
311.003
311.126
310.956
310.748
310.555
310.38
310.125
310.39
310.74
310.881
311.026
311.171
311.285
311.551
311.516
311.461
311.397
311.323
310.914
311.613
311.897
311.9
311.876
311.833
311.793
311.249
311.463
311.767
312.09
312.337
312.203
312.856
312.878
312.35
311.692
311.145
310.788
310.687
310.986
311.433
311.954
312.395
312.493
312.375
312.102
311.684
311.205
310.721
310.338
310.32
310.631
311.033
311.439
311.795
312.149
311.587
311.232
311.025
310.801
310.586
310.423
310.478
310.508
310.557
310.614
310.673
310.87
310.217
310.173
310.206
310.253
310.308
310.364
310.235
310.114
309.993
309.884
309.792
309.724
309.478
309.569
309.672
309.797
309.948
310.115
310.02
309.827
309.665
309.539
309.437
309.35
309.374
309.495
309.596
309.697
309.83
309.992
310.157
310.155
310.129
310.007
309.792
309.409
309.281
309.683
309.881
310.015
310.065
310.072
309.964
309.948
309.864
309.674
309.43
309.095
308.99
309.24
309.505
309.747
309.872
309.895
309.878
309.833
309.648
309.36
309.103
308.962
308.954
309.075
309.304
309.587
309.814
309.891
309.978
309.881
309.655
309.393
309.155
308.96
309.4
309.609
309.804
309.992
310.16
310.237
311.071
311.111
311.158
311.165
311.12
311.042
312.792
313.187
313.525
314.939
329.331
411.909
401.221
403.902
416.125
425.402
429.283
351.983
344.607
334.043
326.787
325.261
314.144
314.223
315.541
319.131
323.069
314.911
313.698
312.985
312.967
313.166
312.939
312.703
312.497
312.485
312.699
311.929
312.01
312.191
312.431
312.657
312.437
312.112
311.816
311.584
311.447
311.936
311.968
312.119
312.385
312.701
312.957
312.727
312.676
312.941
313.311
318.649
317.388
315.663
314.633
314.451
329.785
331.353
335.745
339.254
340.496
414.791
416.65
418.712
416.212
415.848
423.553
335.513
315.564
313.454
313.088
312.639
312.581
313.15
313.938
317.87
341.073
428.367
417.766
333.379
315.718
313.625
313.141
312.725
313.162
313.135
313.488
313.943
316.684
337.347
421.389
425.492
338.89
317.14
314.365
314.074
314.014
314.123
314.248
314.486
316.438
334.35
418.118
410.748
330.768
316.446
315.24
315.196
315.204
315.365
315.355
315.395
316.69
331.583
411.708
405.258
328.795
316.113
315.072
315.019
314.997
314.683
314.7
314.756
315.672
327.261
401.74
400.151
406.421
420.207
436.71
448.201
368.084
351.188
335.921
328.656
326.594
315.424
315.498
316.766
321.717
329.729
317.618
315.309
314.302
314.34
314.549
314.491
314.245
313.973
313.965
314.43
313.51
313.603
313.895
314.222
314.47
314.442
314.222
313.917
313.608
313.48
313.408
313.523
313.817
314.112
314.307
314.443
314.195
314.109
313.929
313.624
313.338
313.235
312.935
313.016
313.293
313.664
313.9
313.96
313.93
313.506
313.059
312.705
312.532
312.489
312.32
312.356
312.507
312.809
313.195
313.698
313.71
313.258
312.899
312.594
312.42
312.369
312.351
312.4
312.586
312.921
313.324
313.767
313.909
313.383
312.934
312.57
312.365
312.307
312.377
312.434
312.639
312.995
313.425
313.935
314.187
313.176
312.765
312.465
312.315
312.275
312.27
312.308
312.442
312.687
313.055
314.301
314.527
313.583
313.181
312.848
312.65
312.594
312.802
312.862
313.062
313.377
313.704
314.426
314.52
314.052
313.812
313.636
313.533
313.496
313.561
313.597
313.719
313.943
314.231
314.569
314.587
314.382
314.059
313.781
313.628
313.582
313.602
313.652
313.836
314.167
314.501
314.571
314.581
314.583
314.27
313.889
313.662
313.597
313.766
313.777
313.755
313.579
313.195
312.57
312.675
313.337
313.698
313.836
313.825
313.801
312.67
312.555
312.216
311.725
311.17
310.6
308.867
310.034
311.047
311.868
312.374
312.531
312.514
312.413
312.01
311.235
310.211
309.005
308.668
309.452
310.419
311.346
311.951
312.138
311.897
311.684
311.004
310.049
309.186
308.629
308.725
309.377
310.284
311.172
311.728
311.883
311.897
311.803
311.441
310.813
310.085
309.121
309.503
310.72
311.249
311.66
311.882
311.943
312.005
311.973
311.851
311.602
311.223
309.822
310.17
311.533
311.736
311.818
311.871
311.888
311.486
311.478
311.428
311.39
311.33
310.301
310.296
310.442
310.567
310.723
310.913
311.069
310.933
310.693
310.467
310.284
310.127
309.976
309.943
310.111
310.291
310.503
310.759
311.019
311.148
310.908
310.645
310.42
310.229
310.054
310.245
310.507
310.689
310.895
311.12
311.311
311.508
311.388
311.234
311.081
310.933
310.557
311.146
311.582
311.658
311.723
311.781
311.821
312.005
312.082
312.173
312.242
312.251
311.884
312.462
312.82
312.498
312.093
311.72
311.458
310.931
311.284
311.817
312.428
312.949
313.068
312.202
311.899
311.525
311.104
310.7
310.401
310.367
310.74
311.199
311.652
312.062
312.342
310.844
310.679
310.457
310.199
309.936
309.748
309.764
310.013
310.352
310.688
310.98
311.194
311.486
311.152
310.824
310.455
310.093
309.832
309.999
310.189
310.458
310.741
311.001
311.442
311.011
310.651
310.529
310.407
310.298
310.227
310.3
310.268
310.247
310.238
310.247
310.404
309.788
309.787
309.865
309.959
310.068
310.18
310.052
309.888
309.743
309.628
309.536
309.461
309.319
309.396
309.488
309.605
309.761
309.952
309.919
309.755
309.625
309.531
309.437
309.326
309.35
309.733
309.945
310.067
310.093
310.09
309.969
309.96
309.912
309.785
309.602
309.236
309.068
309.351
309.572
309.75
309.828
309.839
309.765
309.741
309.62
309.394
309.165
308.991
308.986
309.04
309.239
309.501
309.684
309.73
309.726
309.642
309.418
309.165
308.992
308.942
308.817
308.969
309.182
309.435
309.667
309.772
310.053
309.947
309.739
309.508
309.282
309.066
310.94
311.003
311.008
310.948
310.852
310.771
310.43
310.529
310.656
310.758
310.798
310.79
312.512
312.982
313.485
317.263
342.439
431.829
424.275
418.579
410.881
402.194
399.818
330.254
331.138
332.544
332.846
333.442
314.656
314.573
314.782
314.98
314.997
311.968
312.042
312.151
312.359
312.665
312.397
312.003
311.663
311.399
311.232
310.948
311.125
311.403
311.75
312.153
311.924
311.405
310.99
310.668
310.464
310.662
310.902
311.257
311.685
312.208
312.998
312.093
311.698
311.355
311.087
312.906
313.386
314.103
315.524
317.949
342.871
337.169
330.526
326.177
324.489
391.521
395.067
408.569
421.04
428.868
438.328
354.985
324.372
315.812
313.569
312.625
313.183
315.781
320.308
332.475
365.545
444.219
436.603
350.343
321.813
314.996
313.382
312.568
312.661
313.548
315.712
324.093
354.954
440.006
431.001
344.4
318.875
314.015
313.116
312.635
312.8
313.098
313.584
316.247
336.197
419.488
418.899
336.628
316.397
313.654
313.209
312.964
313.222
313.523
313.997
317.093
339.093
422.861
431.631
343.201
318.05
314.475
314.065
313.972
314.039
314.224
314.529
316.769
336.275
421.671
411.922
331.231
316.623
315.411
315.379
315.401
315.764
315.721
315.726
317.108
333.081
414.968
425.602
338.577
318.053
315.894
315.851
315.876
315.36
315.39
315.479
317.321
335.521
420.234
410.471
330.782
316.38
315.078
314.989
314.929
314.602
314.402
314.188
313.9
313.615
313.504
314.112
316.536
326.736
361.688
441.066
434.528
350.159
321.137
315.044
313.884
313.966
314.291
316.964
337.656
424.049
412.392
330.492
315.682
314.333
314.222
314.446
314.526
315.544
327.987
405.384
405.508
328.389
315.783
314.733
314.651
314.652
314.741
316.113
331.142
413.327
418.664
332.668
316.111
314.557
314.444
314.224
314.39
316.529
336.656
426.858
432.147
343.74
318.08
314.4
313.975
313.852
314.976
321.193
349.719
430.726
430.066
353.048
323.899
315.779
313.921
313.488
313.602
313.89
314.179
314.396
314.616
314.153
314.073
313.98
313.815
313.594
313.474
313.503
313.619
313.842
314.01
314.103
314.175
313.85
313.846
313.812
313.675
313.48
313.386
313.248
313.33
313.534
313.703
313.721
313.628
313.506
313.534
313.371
313.099
312.879
312.804
312.82
312.918
313.159
313.423
313.587
313.628
313.736
313.471
313.151
312.836
312.637
312.58
312.543
312.62
312.845
313.174
313.511
313.768
313.567
313.365
313.081
312.778
312.566
312.499
312.438
312.502
312.691
312.927
313.072
312.991
313.275
313.202
312.886
312.591
312.412
312.359
312.377
312.432
312.623
312.953
313.315
313.548
313.419
313.065
312.781
312.515
312.349
312.297
312.315
312.366
312.533
312.81
313.145
313.94
313.97
313.211
312.93
312.656
312.49
312.441
312.86
312.893
312.979
313.076
313.208
314.063
314.719
313.948
313.636
313.427
313.307
313.262
313.282
313.323
313.466
313.739
314.143
314.906
315.11
314.318
313.817
313.471
313.295
313.243
313.198
313.253
313.458
313.873
314.467
315.326
315.546
314.587
313.904
313.419
313.179
313.114
313.013
313.081
313.355
313.902
314.642
315.765
314.659
314.659
314.346
313.927
313.659
313.582
313.537
313.623
313.929
314.386
314.75
314.808
312.916
313.575
313.876
313.937
313.873
313.832
312.797
312.689
312.37
311.895
311.336
310.748
308.929
310.083
311.104
311.933
312.447
312.609
312.579
312.471
312.038
311.228
310.195
309.081
308.707
309.439
310.379
311.316
311.956
312.162
311.901
311.66
310.941
309.992
309.175
308.672
308.782
309.298
310.206
311.122
311.719
311.891
311.911
311.806
311.412
310.751
310.01
309.147
309.522
310.664
311.212
311.652
311.896
311.963
312.064
312.024
311.88
311.601
311.202
309.844
310.197
311.594
311.838
311.944
312.007
312.027
311.612
311.605
311.552
311.512
311.442
310.331
310.336
310.491
310.624
310.793
311.002
311.181
311.058
310.791
310.546
310.352
310.187
310.031
310.03
310.196
310.381
310.605
310.882
311.17
311.336
311.07
310.785
310.545
310.346
310.171
310.394
310.663
310.857
311.081
311.326
311.536
311.77
311.636
311.465
311.295
311.132
310.741
311.344
311.805
311.895
311.973
312.043
312.093
312.317
312.403
312.498
312.559
312.545
312.06
312.62
313.069
312.77
312.383
312.024
311.77
311.154
311.462
311.918
312.445
312.938
313.214
312.045
311.748
311.411
311.064
310.745
310.516
309.829
309.931
310.079
310.227
310.342
310.39
310.515
310.399
310.253
310.079
309.897
309.759
309.206
309.271
309.376
309.485
309.578
309.644
309.861
309.801
309.684
309.529
309.366
309.249
309.353
309.526
309.758
309.975
310.139
310.215
310.674
310.46
310.23
309.953
309.671
309.469
309.656
309.832
310.09
310.356
310.592
310.969
310.888
310.469
310.321
310.17
310.035
309.949
310.194
310.179
310.184
310.205
310.238
310.487
309.872
309.792
309.845
309.925
310.022
310.125
309.991
309.832
309.696
309.591
309.512
309.451
309.296
309.362
309.444
309.552
309.7
309.888
309.848
309.685
309.563
309.475
309.389
309.287
309.299
309.673
309.878
309.998
310.026
310.023
309.851
309.843
309.8
309.683
309.518
309.2
309.058
309.273
309.465
309.628
309.699
309.709
309.622
309.601
309.488
309.285
309.1
309.021
309.038
309.003
309.131
309.352
309.526
309.573
309.547
309.463
309.252
309.041
308.934
308.958
308.697
308.804
308.98
309.213
309.444
309.561
309.832
309.716
309.472
309.21
308.972
308.763
308.557
308.725
308.952
309.22
309.474
309.59
310.068
310.163
310.286
310.397
310.47
310.538
310.088
310.026
309.963
309.882
309.798
309.727
309.674
309.744
310.053
310.45
310.994
312.13
312.93
311.143
310.442
309.972
309.69
309.622
309.961
310.216
310.623
311.146
312.205
314.997
311.949
310.719
310.304
310.045
310.403
310.623
311.233
314.351
320.299
333.611
322.994
315.403
313.49
313.683
337.641
335.352
342.094
354.205
367.754
447.895
441.7
433.683
422.84
425.324
445.385
438.113
439.621
442.879
446.716
367.468
358.39
352.547
351.099
359.226
320.118
317.79
318.85
325.506
335.437
323.074
315.703
311.746
310.931
311.036
309.902
310.086
310.536
312.432
317.089
312.783
311.052
310.392
310.046
309.785
309.387
309.476
309.776
310.267
311.307
315.884
320.492
333.114
342.265
355.593
383.479
452.755
456.089
390.237
365.467
353.684
344.634
327.436
321.554
334.747
347.937
369.333
404.932
464.454
453.517
383.736
348.101
330.621
321.954
315.083
316.047
325.928
336.175
355.377
392.042
459.038
448.647
371.981
337.204
323.1
317.297
313.601
313.792
317.384
323.199
337.591
373.137
449.873
440.577
355.462
324.024
315.638
313.623
312.81
312.777
313.176
313.869
318.429
344.203
431.046
429.986
343.059
318.133
314.088
313.62
313.249
313.351
313.561
313.937
316.447
335.862
417.522
422.263
338.595
317.118
314.192
313.783
313.545
313.987
314.103
314.529
317.937
342.41
430.87
420.288
335.337
316.68
314.578
314.237
313.982
315.573
315.527
315.547
316.58
330.01
409.349
413.799
332.422
317.245
316.054
316.108
316.184
316.447
316.325
316.277
318.292
338.61
426.042
433.936
344.641
319.593
316.481
316.451
316.589
315.986
315.925
316.045
319.181
343.849
432.593
424.495
338.333
317.868
315.551
315.438
315.45
314.991
315.003
315.089
316.594
332.252
413.702
413.17
332.249
316.583
315.055
314.939
314.857
314.46
314.263
314.074
313.812
313.53
313.415
313.579
314.529
319.123
338.953
410.037
411.758
339.176
318.495
314.337
313.64
313.867
314.213
317.455
339.727
420.12
423.419
337.14
316.517
314.314
314.133
314.345
314.483
316.075
333.066
417.973
413.255
331.288
316.083
314.683
314.557
314.527
314.681
316.548
335.424
424.191
428.394
343.391
319.627
315.074
314.39
314.182
314.922
319.675
344.561
427.911
417.931
339.319
317.75
314.211
313.823
313.531
314
317.026
333.17
401.393
395.388
330.297
316.527
313.892
313.41
313.357
313.478
313.775
314.052
314.251
314.441
313.957
313.832
313.76
313.638
313.464
313.365
313.398
313.492
313.672
313.787
313.831
313.888
313.75
313.767
313.765
313.67
313.501
313.407
313.3
313.368
313.536
313.643
313.603
313.438
313.037
313.346
313.293
313.147
312.994
312.929
312.982
313.078
313.271
313.417
313.427
313.323
312.683
312.965
313.054
312.956
312.793
312.721
312.68
312.755
312.948
313.116
313.126
312.883
313.141
313.24
313.152
312.938
312.73
312.651
312.548
312.613