/*--------------------------------*- C++ -*----------------------------------*\
| =========                 |                                                 |
| \\      /  F ield         | OpenFOAM: The Open Source CFD Toolbox           |
|  \\    /   O peration     | Version:  2212                                  |
|   \\  /    A nd           | Website:  www.openfoam.com                      |
|    \\/     M anipulation  |                                                 |
\*---------------------------------------------------------------------------*/
FoamFile
{
    version     2.0;
    format      ascii;
    arch        "LSB;label=32;scalar=64";
    class       volScalarField;
    location    "80";
    object      p;
}
// * * * * * * * * * * * * * * * * * * * * * * * * * * * * * * * * * * * * * //

dimensions      [0 2 -2 0 0 0 0];

internalField   nonuniform List<scalar> 
248319
(
0
0.0192781
0.0402674
0.0499092
0.057949
0.0646517
0.0702455
0.109354
0.103288
0.0960145
0.0872922
0.0768331
0.051044
0.0498342
0.0761381
0.0872718
0.0965682
0.104326
0.110797
0.0812577
0.0763877
0.0705989
0.0636706
0.0553445
0.0330919
0.0137195
0.0280084
0.0342216
0.039522
0.044087
0.048061
0.062626
0.057788
0.0519901
0.0450509
0.0367418
0.0196806
-0.0539487
-0.0471893
-0.043444
-0.0403198
-0.0376989
-0.0355226
-0.0212321
-0.0246999
-0.0288585
-0.0338364
-0.0398017
-0.0507624
-0.0555457
-0.0402188
-0.0334765
-0.0278614
-0.023181
-0.0192643
0.0634659
0.0574264
0.0501779
0.041487
0.0310657
0.000543092
0.0309068
0.0593121
0.0692848
0.0775993
0.0845271
0.0903062
0.100135
0.0944886
0.0877136
0.0795867
0.0698433
0.0359016
0.0499479
0.0749713
0.0847343
0.0928715
0.0996554
0.10531
0.109527
0.103004
0.0951825
0.0858062
0.0745669
0.0473124
0.0190744
0.039746
0.0463728
0.0518991
0.0565819
0.0606306
-0.0356322
-0.0383624
-0.0410924
-0.0438204
-0.0465499
-0.0535715
-0.0515044
-0.0438561
-0.0414677
-0.0392271
-0.0370889
-0.0350241
-0.140388
-0.140797
-0.141188
-0.141557
-0.141896
-0.14527
-0.144825
-0.141947
-0.140967
-0.140153
-0.139471
-0.138898
-0.132515
-0.133793
-0.135338
-0.137177
-0.139386
-0.144443
-0.145906
-0.139377
-0.136705
-0.134477
-0.132607
-0.131066
-0.133992
-0.13563
-0.137608
-0.139968
-0.142811
-0.150195
-0.0695834
-0.052582
-0.0457618
-0.0400762
-0.035343
-0.0313806
0.0473142
0.0406938
0.0327531
0.0232223
0.011796
-0.0194649
-0.00915909
0.0315421
0.045278
0.0567309
0.0662815
0.0742438
0.0901745
0.0833693
0.0752086
0.0654174
0.0536748
0.0104143
0.00965875
0.052318
0.0641557
0.0740224
0.0822457
0.0891019
0.0978817
0.0923006
0.0856036
0.0775667
0.0679246
0.0344808
0.0489424
0.0735205
0.0833189
0.0914831
0.0982863
0.103953
0.109475
0.102781
0.0947539
0.0851312
0.0735948
0.0456354
0.0147841
0.0354098
0.042195
0.047908
0.0527896
0.057036
-0.0392381
-0.041954
-0.0446717
-0.0473898
-0.0501101
-0.058692
-0.147621
-0.143315
-0.142597
-0.141879
-0.141161
-0.140443
-0.139444
-0.140147
-0.140846
-0.141545
-0.142243
-0.146188
-0.243996
-0.242351
-0.242278
-0.242205
-0.242133
-0.242059
-0.242968
-0.242956
-0.242922
-0.242862
-0.242764
-0.243759
-0.243292
-0.242387
-0.242261
-0.242154
-0.24207
-0.242002
-0.238676
-0.238998
-0.239379
-0.239844
-0.240396
-0.242607
-0.24286
-0.239809
-0.239089
-0.238486
-0.237987
-0.237561
-0.238123
-0.238591
-0.239155
-0.239823
-0.240623
-0.244227
-0.245664
-0.241506
-0.24053
-0.239722
-0.239038
-0.238479
-0.136228
-0.138072
-0.140289
-0.142945
-0.146132
-0.154327
-0.0773996
-0.0596848
-0.0525311
-0.0465657
-0.0416005
-0.0374543
0.0342152
0.0274379
0.0193042
0.00954019
-0.00216121
-0.032847
-0.0252849
0.0126324
0.0266633
0.0383619
0.0481151
0.0562425
0.056825
0.0485573
0.0386342
0.0267305
0.01245
-0.0247298
-0.00912766
0.0306911
0.0447124
0.0563987
0.066141
0.074262
0.0739362
0.0657344
0.0558933
0.0440875
0.0299182
-0.00975257
0.00872951
0.0514165
0.0634161
0.0734134
0.0817459
0.0886907
0.09758
0.0919205
0.0851313
0.0769827
0.0672063
0.0335581
0.0480735
0.0729869
0.0829153
0.0911884
0.0980836
0.103827
0.109427
0.102621
0.0944587
0.0846733
0.0729406
0.0445352
0.0132918
0.0339995
0.0409722
0.0468589
0.051899
0.0562859
-0.0407162
-0.0434393
-0.0461618
-0.0488845
-0.0516085
-0.0603935
-0.148678
-0.144123
-0.143448
-0.142772
-0.142098
-0.141423
-0.242701
-0.242776
-0.242852
-0.24293
-0.243006
-0.245094
-0.24448
-0.242458
-0.242386
-0.242314
-0.242242
-0.242169
-0.343409
-0.343406
-0.343404
-0.343403
-0.343399
-0.344177
-0.343947
-0.343384
-0.343407
-0.343428
-0.34345
-0.343471
-0.34421
-0.344157
-0.344092
-0.344015
-0.343919
-0.344006
-0.343676
-0.343582
-0.343636
-0.343687
-0.343727
-0.343761
-0.34195
-0.341997
-0.342049
-0.342118
-0.342199
-0.343024
-0.342976
-0.341721
-0.341592
-0.341479
-0.341391
-0.341324
-0.341468
-0.341551
-0.341661
-0.341794
-0.341946
-0.34347
-0.343952
-0.342136
-0.341949
-0.341784
-0.341653
-0.341541
-0.340758
-0.340952
-0.341168
-0.341439
-0.341758
-0.344006
-0.246057
-0.241091
-0.239714
-0.238569
-0.237606
-0.23682
-0.13452
-0.136838
-0.139626
-0.142965
-0.146967
-0.156224
-0.0818385
-0.0633178
-0.055352
-0.0487084
-0.0431864
-0.0385642
0.023971
0.0174923
0.00971552
0.000384208
-0.0108004
-0.0405088
-0.0341779
0.00127582
0.0135908
0.0238594
0.0324194
0.0395527
0.0405655
0.0333941
0.0247889
0.0144649
0.00208056
-0.0330936
-0.0329074
0.00219508
0.0145666
0.0248782
0.0334732
0.0406343
0.0567283
0.0484248
0.0384604
0.0265076
0.0121651
-0.0248709
-0.0250382
0.0120539
0.0263969
0.0383487
0.0483094
0.0566088
0.0737428
0.0655297
0.0556736
0.0438442
0.0296524
-0.0101001
0.00828325
0.0511232
0.0631596
0.0731849
0.0815436
0.0885068
0.0974573
0.0917784
0.084967
0.0767911
0.0669771
0.0331515
0.0476897
0.0727855
0.0827558
0.091062
0.0979848
0.103752
0.109384
0.102533
0.0943154
0.0844632
0.0726521
0.0440668
0.0127377
0.0335616
0.040603
0.0465491
0.0516414
0.0560698
-0.0411982
-0.0439171
-0.0466351
-0.0493539
-0.0520741
-0.0610004
-0.149283
-0.14472
-0.144041
-0.143361
-0.142681
-0.142002
-0.243157
-0.243233
-0.243311
-0.243388
-0.243464
-0.245541
-0.344822
-0.343997
-0.343997
-0.343997
-0.343997
-0.343997
-0.343683
-0.343683
-0.343683
-0.343683
-0.343683
-0.344517
-0.444285
-0.44396
-0.44396
-0.44396
-0.44396
-0.44396
-0.443806
-0.443805
-0.443804
-0.443802
-0.4438
-0.444085
-0.443996
-0.443843
-0.443858
-0.443872
-0.443887
-0.4439
-0.444461
-0.44443
-0.444392
-0.444345
-0.444289
-0.444139
-0.443994
-0.44413
-0.444189
-0.444242
-0.444287
-0.44432
-0.443394
-0.443394
-0.443388
-0.443382
-0.443377
-0.443633
-0.443708
-0.443262
-0.443259
-0.443245
-0.443241
-0.443225
-0.443587
-0.443609
-0.443605
-0.443627
-0.443643
-0.444153
-0.444727
-0.444188
-0.444153
-0.444138
-0.444127
-0.444105
-0.444408
-0.444433
-0.44447
-0.444505
-0.444559
-0.44518
-0.445396
-0.444577
-0.444462
-0.44436
-0.444285
-0.444221
-0.338892
-0.339259
-0.33968
-0.340194
-0.340807
-0.343695
-0.245853
-0.239667
-0.237487
-0.235668
-0.234142
-0.232882
-0.124322
-0.127574
-0.131488
-0.136183
-0.141819
-0.15471
-0.0825147
-0.060639
-0.0513641
-0.0436289
-0.0371974
-0.0318114
0.0161663
0.00996309
0.00252144
-0.00640699
-0.0171161
-0.0446062
-0.0407134
-0.0115193
-0.00121155
0.00738452
0.0145462
0.0205196
0.0212587
0.0153386
0.00823754
-0.000285261
-0.0105073
-0.0395478
-0.0393205
-0.0103369
-0.000137244
0.00836484
0.0154487
0.0213552
0.0213318
0.0154282
0.00835262
-0.000142488
-0.0103402
-0.0393524
-0.0329589
0.00218749
0.0145488
0.0248512
0.033434
0.0405865
0.0405388
0.0333869
0.0248071
0.0145067
0.00214653
-0.0330523
-0.0251676
0.0119835
0.0263251
0.0382763
0.0482345
0.0565318
0.0736469
0.0654313
0.0555725
0.0437401
0.0295453
-0.0102795
0.00809074
0.0510191
0.0630603
0.0730923
0.0814561
0.088424
0.0974046
0.0917231
0.0849056
0.0767245
0.066906
0.0330037
0.0475588
0.0727247
0.082705
0.09102
0.0979503
0.103723
0.109374
0.102506
0.09427
0.0843942
0.072556
0.0439236
0.0125819
0.033512
0.0405935
0.0465736
0.0516917
0.0561374
-0.0413527
-0.0440811
-0.0468086
-0.049536
-0.0522644
-0.0612175
-0.149541
-0.144987
-0.144305
-0.143624
-0.142941
-0.142258
-0.243426
-0.243503
-0.24358
-0.243656
-0.243733
-0.245791
-0.345036
-0.344233
-0.344233
-0.344233
-0.344233
-0.344233
-0.444391
-0.444391
-0.444391
-0.444391
-0.444391
-0.444693
-0.444505
-0.444185
-0.444185
-0.444185
-0.444185
-0.444185
-0.543747
-0.543747
-0.543747
-0.543747
-0.543747
-0.543883
-0.543696
-0.543555
-0.543555
-0.543555
-0.543555
-0.543555
-0.543443
-0.543443
-0.543443
-0.543442
-0.543441
-0.543561
-0.543529
-0.543485
-0.543493
-0.5435
-0.543507
-0.543514
-0.543899
-0.543884
-0.543864
-0.54384
-0.543811
-0.543676
-0.54368
-0.543822
-0.543861
-0.543887
-0.543907
-0.543938
-0.543607
-0.543592
-0.543601
-0.543588
-0.54358
-0.543623
-0.543934
-0.543844
-0.543838
-0.543854
-0.543835
-0.543843
-0.544586
-0.544577
-0.544597
-0.544586
-0.544591
-0.544624
-0.545631
-0.545713
-0.545713
-0.545716
-0.545705
-0.545709
-0.547059
-0.547063
-0.547069
-0.547069
-0.547075
-0.546852
-0.548129
-0.548472
-0.548447
-0.548442
-0.548422
-0.548411
-0.549315
-0.549339
-0.549379
-0.549413
-0.549461
-0.549091
-0.445342
-0.444149
-0.443876
-0.443651
-0.443467
-0.443309
-0.336083
-0.336742
-0.337513
-0.338447
-0.339571
-0.343326
-0.246675
-0.238982
-0.235669
-0.232902
-0.230587
-0.228666
-0.121773
-0.125813
-0.130678
-0.136515
-0.143517
-0.159732
-0.109597
-0.0815233
-0.0712076
-0.0626025
-0.0554308
-0.0494486
-0.0145121
-0.0204339
-0.0275268
-0.0360432
-0.0462555
-0.0736495
-0.0681763
-0.0358259
-0.0257752
-0.0173979
-0.0104098
-0.00458139
-0.00460018
-0.0104186
-0.0173925
-0.0257598
-0.0358048
-0.0676308
-0.0675438
-0.0358202
-0.0257747
-0.0174043
-0.0104287
-0.004614
-0.00465962
-0.0104725
-0.0174502
-0.0258173
-0.0358609
-0.0676102
-0.0677001
-0.0359168
-0.0258676
-0.0174949
-0.0105173
-0.00470158
0.0212948
0.0153914
0.00831344
-0.000183848
-0.0103837
-0.0394298
-0.0394922
-0.0104235
-0.000222647
0.00827883
0.0153617
0.0212649
0.0405097
0.0333554
0.0247715
0.0144704
0.00210877
-0.0331192
-0.0252401
0.0119452
0.0262852
0.0382356
0.0481944
0.0564937
0.0736028
0.0653872
0.0555287
0.0436985
0.0295049
-0.0103577
0.00802301
0.0509847
0.0630248
0.0730583
0.0814224
0.08839
0.0973868
0.091704
0.0848853
0.0767046
0.0668903
0.0329667
0.0475302
0.0727123
0.0826922
0.091008
0.0979386
0.103714
0.109367
0.102498
0.0942585
0.0843789
0.0725382
0.0438951
0.0125507
0.0335051
0.0405907
0.0465729
0.051694
0.056141
-0.0413805
-0.0441117
-0.0468401
-0.0495682
-0.0522985
-0.0612581
-0.149621
-0.145075
-0.144393
-0.143711
-0.14303
-0.142346
-0.243552
-0.243629
-0.243705
-0.243782
-0.243859
-0.2459
-0.345164
-0.344375
-0.344375
-0.344375
-0.344375
-0.344375
-0.444558
-0.444558
-0.444558
-0.444558
-0.444558
-0.444846
-0.544303
-0.544198
-0.544198
-0.544198
-0.544198
-0.544198
-0.543967
-0.543967
-0.543967
-0.543967
-0.543967
-0.544086
-0.643193
-0.643154
-0.643154
-0.643154
-0.643154
-0.643154
-0.642854
-0.642854
-0.642854
-0.642854
-0.642854
-0.642912
-0.642705
-0.642637
-0.642637
-0.642637
-0.642637
-0.642637
-0.642518
-0.642518
-0.642517
-0.642517
-0.642517
-0.64258
-0.642558
-0.642533
-0.642536
-0.642538
-0.64254
-0.642544
-0.642788
-0.642781
-0.642774
-0.642765
-0.642753
-0.642676
-0.642775
-0.642872
-0.642881
-0.642894
-0.642914
-0.642913
-0.642965
-0.642973
-0.642962
-0.642964
-0.642962
-0.642932
-0.643446
-0.6435
-0.643506
-0.643502
-0.643502
-0.643502
-0.644578
-0.644583
-0.644574
-0.644585
-0.644575
-0.644398
-0.645847
-0.646234
-0.646238
-0.646227
-0.646236
-0.646231
-0.648469
-0.64847
-0.648476
-0.648479
-0.648474
-0.647821
-0.650209
-0.65116
-0.651165
-0.65116
-0.651152
-0.651156
-0.65366
-0.653661
-0.653668
-0.653673
-0.653676
-0.652515
-0.653223
-0.654541
-0.654516
-0.654508
-0.654486
-0.654483
-0.548959
-0.549031
-0.549111
-0.549203
-0.549316
-0.549084
-0.445064
-0.443227
-0.442658
-0.442182
-0.441785
-0.441462
-0.332422
-0.333575
-0.334926
-0.336563
-0.338529
-0.343587
-0.247311
-0.235392
-0.230352
-0.22615
-0.22263
-0.219724
-0.125711
-0.130369
-0.135954
-0.142656
-0.150692
-0.170158
-0.126783
-0.0995964
-0.0890911
-0.0803318
-0.0730299
-0.0669442
-0.055363
-0.0619304
-0.0698191
-0.0792763
-0.0906243
-0.121107
-0.102543
-0.0664912
-0.0549496
-0.0453253
-0.0373044
-0.0306149
-0.0307614
-0.0374139
-0.0453966
-0.0549727
-0.0664621
-0.101796
-0.10168
-0.0665624
-0.0550728
-0.0454947
-0.0375114
-0.0308597
-0.0309347
-0.0375873
-0.0455718
-0.0551498
-0.0666432
-0.101732
-0.101821
-0.0667048
-0.0552065
-0.0456282
-0.0376409
-0.030986
-0.0310199
-0.0376746
-0.0456642
-0.0552474
-0.0667506
-0.101892
-0.0677669
-0.0359601
-0.0259059
-0.0175284
-0.0105486
-0.00472972
-0.00474487
-0.0105671
-0.0175489
-0.0259318
-0.0359858
-0.0678096
-0.0395305
-0.0104473
-0.000244192
0.00825529
0.0153429
0.0212454
0.0404934
0.0333372
0.024752
0.0144492
0.002085
-0.0331596
-0.0252765
0.0119254
0.026267
0.0382182
0.0481788
0.056476
0.0735879
0.0653728
0.0555144
0.0436843
0.0294913
-0.0103853
0.00800819
0.050978
0.063016
0.0730492
0.081413
0.0883783
0.0973825
0.0916996
0.0848834
0.0767043
0.0668893
0.0329675
0.047534
0.0727111
0.0826918
0.0910083
0.0979371
0.103712
0.109368
0.102498
0.0942583
0.0843784
0.0725372
0.0439072
0.0125738
0.0335395
0.0406311
0.0466169
0.0517393
0.0561881
-0.0413658
-0.044095
-0.0468229
-0.0495533
-0.0522841
-0.0612431
-0.149629
-0.145091
-0.144409
-0.143725
-0.143042
-0.142361
-0.243598
-0.243674
-0.243751
-0.243829
-0.243905
-0.245938
-0.345237
-0.344458
-0.344458
-0.344458
-0.344458
-0.344458
-0.444698
-0.444698
-0.444698
-0.444698
-0.444698
-0.444975
-0.544537
-0.54445
-0.54445
-0.54445
-0.54445
-0.54445
-0.644033
-0.644033
-0.644033
-0.644033
-0.644034
-0.644006
-0.643557
-0.643547
-0.643547
-0.643547
-0.643547
-0.643547
-0.742881
-0.742881
-0.742881
-0.742881
-0.742881
-0.742807
-0.742158
-0.742179
-0.742179
-0.742179
-0.742179
-0.742179
-0.741692
-0.741692
-0.741692
-0.741692
-0.741692
-0.741707
-0.741417
-0.741382
-0.741382
-0.741382
-0.741382
-0.741382
-0.741216
-0.741216
-0.741216
-0.741216
-0.741216
-0.741256
-0.741213
-0.741184
-0.741185
-0.741185
-0.741187
-0.741187
-0.741305
-0.741304
-0.741304
-0.741304
-0.741304
-0.741287
-0.74142
-0.741462
-0.741463
-0.741466
-0.741468
-0.74147
-0.741754
-0.741754
-0.741753
-0.741752
-0.741753
-0.741701
-0.742327
-0.742449
-0.742446
-0.742442
-0.742451
-0.742446
-0.743707
-0.743701
-0.743701
-0.743697
-0.743707
-0.743429
-0.745144
-0.745661
-0.745654
-0.745666
-0.745658
-0.745664
-0.748448
-0.748447
-0.748451
-0.748442
-0.748445
-0.747592
-0.750735
-0.752019
-0.752017
-0.752017
-0.752018
-0.752019
-0.755824
-0.755837
-0.755821
-0.755833
-0.75583
-0.754145
-0.757005
-0.7583
-0.758302
-0.758288
-0.758302
-0.758287
-0.752348
-0.752353
-0.752352
-0.752368
-0.752369
-0.75091
-0.650126
-0.651439
-0.651382
-0.651349
-0.651306
-0.651288
-0.546534
-0.546709
-0.546887
-0.547105
-0.547378
-0.54757
-0.444603
-0.441804
-0.44073
-0.439832
-0.439081
-0.438468
-0.328996
-0.330803
-0.33296
-0.33556
-0.33867
-0.345487
-0.255377
-0.239733
-0.233222
-0.227793
-0.223262
-0.219493
-0.140959
-0.146841
-0.153884
-0.162345
-0.172482
-0.201287
-0.161032
-0.133953
-0.123861
-0.115443
-0.108423
-0.102564
-0.0845284
-0.090957
-0.0986654
-0.107912
-0.118997
-0.153278
-0.152027
-0.118421
-0.107525
-0.098439
-0.0908677
-0.0845553
-0.0557021
-0.062118
-0.069825
-0.0790676
-0.090157
-0.119902
-0.119718
-0.0901933
-0.0791319
-0.0699127
-0.0622301
-0.0558289
-0.0559232
-0.0623228
-0.0700011
-0.0792177
-0.0902742
-0.119778
-0.119867
-0.0903446
-0.0792849
-0.070066
-0.062383
-0.0559837
-0.0560199
-0.0624214
-0.070107
-0.0793308
-0.0903954
-0.119936
-0.11998
-0.0904249
-0.0793592
-0.0701312
-0.0624453
-0.0560387
-0.031039
-0.0376935
-0.0456855
-0.0552713
-0.0667791
-0.101937
-0.101964
-0.0667927
-0.0552846
-0.0456988
-0.0377069
-0.0310469
-0.00475754
-0.0105755
-0.0175604
-0.0259433
-0.0359995
-0.0678359
-0.0395525
-0.01046
-0.000254989
0.00824671
0.015332
0.0212377
0.0404853
0.0333303
0.0247418
0.0144383
0.00207313
-0.0331824
-0.0252951
0.0119174
0.0262599
0.0382102
0.0481714
0.0564706
0.0735855
0.0653702
0.0555102
0.0436842
0.0294901
-0.0103937
0.00800931
0.0509809
0.0630187
0.0730492
0.0814111
0.0883783
0.0973827
0.0917018
0.0848876
0.0767095
0.0668948
0.032977
0.0475414
0.0727146
0.0826955
0.0910107
0.09794
0.103714
0.109368
0.102497
0.0942592
0.0843808
0.0725397
0.0439143
0.0125872
0.0335485
0.0406389
0.0466257
0.0517453
0.056192
-0.0413426
-0.0440715
-0.0468003
-0.0495306
-0.0522626
-0.0612187
-0.149616
-0.14508
-0.144398
-0.143714
-0.14303
-0.142348
-0.243612
-0.243688
-0.243767
-0.243845
-0.243921
-0.245949
-0.345286
-0.344512
-0.344512
-0.344512
-0.344512
-0.344512
-0.444819
-0.444819
-0.444819
-0.444819
-0.444819
-0.445088
-0.544781
-0.544717
-0.544717
-0.544717
-0.544717
-0.544717
-0.64459
-0.64459
-0.64459
-0.64459
-0.64459
-0.644512
-0.744676
-0.744942
-0.744942
-0.744942
-0.744942
-0.744942
-0.74382
-0.74382
-0.74382
-0.74382
-0.74382
-0.743663
-0.843839
-0.844195
-0.844195
-0.844195
-0.844195
-0.844195
-0.842451
-0.842451
-0.842451
-0.842451
-0.842451
-0.842263
-0.841132
-0.841214
-0.841214
-0.841214
-0.841214
-0.841214
-0.840415
-0.840415
-0.840415
-0.840415
-0.840415
-0.840394
-0.839953
-0.839942
-0.839942
-0.839942
-0.839942
-0.839942
-0.839691
-0.839691
-0.839691
-0.839691
-0.839691
-0.839716
-0.839629
-0.839597
-0.839597
-0.839597
-0.839595
-0.839594
-0.839619
-0.839623
-0.839628
-0.839632
-0.839637
-0.839653
-0.839784
-0.839788
-0.839788
-0.839781
-0.839778
-0.839775
-0.840144
-0.840149
-0.84014
-0.840144
-0.840146
-0.840097
-0.840722
-0.840856
-0.840849
-0.840853
-0.840857
-0.840853
-0.842088
-0.842088
-0.842097
-0.842085
-0.842091
-0.841806
-0.843512
-0.844036
-0.844037
-0.844037
-0.844038
-0.844033
-0.846881
-0.846896
-0.846881
-0.846888
-0.84689
-0.846005
-0.849271
-0.850676
-0.850667
-0.85067
-0.850678
-0.850671
-0.854985
-0.854975
-0.854981
-0.854971
-0.854981
-0.852833
-0.856017
-0.858653
-0.858651
-0.85865
-0.858649
-0.858652
-0.859238
-0.859243
-0.859239
-0.859242
-0.859238
-0.85801
-0.901196
-0.901607
-0.901595
-0.901586
-0.901576
-0.901569
-0.925074
-0.933756
-0.940994
-0.947028
-0.952056
-0.952054
-0.947027
-0.940997
-0.933764
-0.925086
-0.925098
-0.933774
-0.941008
-0.947032
-0.952047
-0.952048
-0.947026
-0.941007
-0.933779
-0.925115
-0.925129
-0.93379
-0.941015
-0.947021
-0.952039
-0.952188
-0.947024
-0.940833
-0.9334
-0.924481
-0.925692
-0.934394
-0.94165
-0.947689
-0.952726
-0.90991
-0.903476
-0.895756
-0.88649
-0.875369
-0.848783
-0.805059
-0.838023
-0.85159
-0.862896
-0.872316
-0.880164
-0.880011
-0.871997
-0.862374
-0.850828
-0.836971
-0.837518
-0.851188
-0.862579
-0.872072
-0.87998
-0.879994
-0.872084
-0.862587
-0.851191
-0.837514
-0.837515
-0.851197
-0.862594
-0.872091
-0.880007
-0.880024
-0.872103
-0.862601
-0.851196
-0.837515
-0.837512
-0.851197
-0.862604
-0.872109
-0.880027
-0.865295
-0.856806
-0.846618
-0.834391
-0.819717
-0.819718
-0.834388
-0.846612
-0.8568
-0.865287
-0.865279
-0.856792
-0.846607
-0.834384
-0.819719
-0.819715
-0.83438
-0.846599
-0.85678
-0.865265
-0.865249
-0.856769
-0.84659
-0.834374
-0.819715
-0.818232
-0.833324
-0.845901
-0.856377
-0.865105
-0.865058
-0.856226
-0.845625
-0.8329
-0.81763
-0.7824
-0.782335
-0.782406
-0.782391
-0.782373
-0.782354
-0.78235
-0.718828
-0.718886
-0.718932
-0.719001
-0.719078
-0.717985
-0.63645
-0.63685
-0.636474
-0.636175
-0.635906
-0.635698
-0.536314
-0.537027
-0.537857
-0.538881
-0.540089
-0.542428
-0.446162
-0.439736
-0.436577
-0.433951
-0.431746
-0.429921
-0.321619
-0.325325
-0.329758
-0.335086
-0.34147
-0.356623
-0.30216
-0.27399
-0.264387
-0.256387
-0.249711
-0.244149
-0.204076
-0.209657
-0.216367
-0.224408
-0.234045
-0.260245
-0.222136
-0.19512
-0.185135
-0.176805
-0.169865
-0.164078
-0.150271
-0.156532
-0.164039
-0.173045
-0.18385
-0.214789
-0.191917
-0.153458
-0.141737
-0.131965
-0.123818
-0.117028
-0.11678
-0.123468
-0.131484
-0.141105
-0.152648
-0.190284
-0.18991
-0.152595
-0.141086
-0.131493
-0.123504
-0.116838
-0.0846737
-0.090972
-0.0985331
-0.107606
-0.118488
-0.151843
-0.151887
-0.118568
-0.107691
-0.0986247
-0.0910688
-0.0847772
-0.0848423
-0.0911371
-0.0986954
-0.107764
-0.11865
-0.151982
-0.152057
-0.118703
-0.107813
-0.0987414
-0.0911806
-0.0848837
-0.0849039
-0.0912034
-0.0987699
-0.107841
-0.118736
-0.152104
-0.152134
-0.118755
-0.10786
-0.098786
-0.0912175
-0.0849144
-0.0560498
-0.0624591
-0.0701473
-0.0793753
-0.0904428
-0.120007
-0.120022
-0.0904529
-0.0793819
-0.0701553
-0.0624648
-0.0560556
-0.031053
-0.0377128
-0.0457047
-0.0552951
-0.0668012
-0.101979
-0.0678467
-0.036007
-0.0259484
-0.0175681
-0.0105807
-0.00476277
0.0212323
0.0153266
0.00824125
-0.00026251
-0.010466
-0.039563
-0.0331935
0.00206762
0.0144329
0.0247364
0.0333268
0.0404824
0.0564725
0.0481692
0.0382083
0.0262597
0.0119171
-0.0253014
-0.0103929
0.0294956
0.0436896
0.0555149
0.0653709
0.0735861
0.0883782
0.0814135
0.0730541
0.0630238
0.0509867
0.00801548
0.0329858
0.0669015
0.0767126
0.08489
0.091705
0.097383
0.103715
0.0979405
0.0910102
0.0826972
0.07272
0.0475494
0.0439242
0.0725451
0.0843839
0.0942598
0.102497
0.109367
0.056204
0.0517578
0.0466376
0.0406514
0.0335618
0.0126026
-0.0611989
-0.052245
-0.0495139
-0.046785
-0.0440538
-0.041324
-0.142335
-0.143018
-0.143701
-0.144384
-0.145067
-0.149601
-0.245953
-0.243925
-0.243848
-0.243771
-0.243693
-0.243616
-0.34455
-0.34455
-0.34455
-0.34455
-0.34455
-0.345321
-0.445189
-0.444929
-0.444929
-0.444929
-0.444929
-0.444929
-0.544973
-0.544973
-0.544973
-0.544973
-0.544973
-0.545016
-0.645019
-0.645149
-0.645149
-0.645149
-0.645149
-0.645149
-0.746112
-0.746112
-0.746112
-0.746112
-0.746112
-0.745723
-0.847852
-0.848724
-0.848724
-0.848724
-0.848724
-0.848724
-0.846378
-0.846378
-0.846378
-0.846378
-0.846378
-0.845785
-0.948327
-0.949504
-0.949505
-0.949504
-0.949504
-0.949504
-0.945472
-0.945472
-0.945472
-0.945472
-0.945472
-0.94479
-0.942063
-0.942417
-0.942417
-0.942417
-0.942417
-0.942417
-0.94037
-0.94037
-0.94037
-0.94037
-0.94037
-0.940208
-0.939057
-0.939115
-0.939115
-0.939115
-0.939115
-0.939115
-0.938406
-0.938406
-0.938406
-0.938406
-0.938406
-0.938398
-0.938055
-0.938039
-0.938039
-0.938039
-0.938039
-0.938039
-0.937871
-0.937874
-0.937876
-0.937875
-0.937877
-0.937906
-0.937878
-0.937847
-0.937841
-0.937835
-0.93783
-0.937825
-0.937938
-0.937941
-0.937946
-0.937951
-0.937963
-0.937973
-0.938247
-0.938282
-0.938277
-0.938277
-0.938277
-0.938277
-0.938871
-0.938871
-0.938871
-0.938875
-0.938872
-0.938767
-0.939662
-0.939889
-0.939899
-0.939888
-0.939897
-0.939892
-0.941518
-0.941513
-0.941513
-0.941516
-0.941516
-0.941089
-0.943206
-0.943935
-0.943936
-0.943938
-0.943925
-0.943941
-0.947221
-0.947217
-0.947226
-0.947228
-0.947217
-0.945999
-0.949071
-0.951224
-0.951229
-0.951232
-0.951222
-0.951225
-0.955653
-0.955639
-0.955653
-0.955648
-0.955646
-0.951597
-0.967682
-0.985594
-0.991732
-0.996847
-1.00111
-1.00466
-1.0041
-1.0041
-1.0041
-1.0041
-1.00411
-1.0006
-1.00061
-1.00061
-1.00061
-1.00061
-0.99642
-0.996416
-0.996407
-0.996401
-0.996392
-0.991341
-0.991353
-0.991364
-0.991384
-0.9914
-0.985363
-0.985335
-0.985312
-0.985298
-0.985277
-0.969891
-0.969894
-0.969913
-0.969925
-0.969939
-1.05308
-1.05306
-1.05305
-1.05304
-1.05302
-1.05703
-1.05704
-1.05707
-1.05709
-1.05712
-1.05956
-1.05955
-1.05953
-1.05951
-1.0595
-1.06156
-1.06157
-1.06158
-1.06159
-1.0616
-1.0633
-1.0633
-1.06329
-1.06329
-1.06328
-1.06471
-1.06472
-1.06471
-1.06472
-1.06471
-1.06517
-1.06371
-1.06195
-1.05984
-1.05731
-1.05275
-1.0525
-1.05789
-1.06047
-1.06261
-1.0644
-1.06588
-1.00575
-1.00227
-0.998095
-0.993084
-0.987067
-0.965377
-0.902001
-0.904911
-0.929481
-0.937237
-0.943704
-0.949089
-0.953571
-0.910383
-0.904614
-0.897693
-0.889389
-0.879425
-0.851435
-0.807339
-0.841159
-0.853823
-0.864378
-0.873168
-0.880497
-0.86527
-0.856754
-0.846534
-0.834269
-0.819548
-0.784409
-0.783325
-0.818587
-0.833626
-0.846156
-0.856597
-0.865293
-0.865125
-0.856112
-0.845292
-0.832304
-0.816717
-0.781272
-0.780833
-0.817158
-0.832627
-0.845516
-0.856252
-0.8652
-0.865342
-0.865354
-0.865365
-0.86537
-0.865376
-0.856627
-0.856622
-0.856618
-0.856612
-0.856603
-0.846118
-0.846121
-0.846123
-0.846123
-0.846125
-0.833519
-0.833522
-0.833527
-0.833529
-0.833531
-0.81843
-0.818419
-0.818412
-0.818401
-0.818394
-0.780358
-0.780388
-0.780423
-0.780476
-0.780528
-0.716453
-0.716182
-0.715953
-0.715766
-0.715603
-0.630724
-0.631254
-0.631896
-0.632646
-0.633566
-0.634421
-0.541651
-0.53704
-0.534652
-0.532655
-0.531008
-0.529611
-0.420803
-0.423731
-0.427266
-0.43151
-0.436584
-0.447954
-0.370543
-0.352049
-0.344551
-0.338306
-0.333092
-0.328742
-0.270593
-0.275934
-0.282344
-0.290032
-0.299256
-0.325124
-0.317661
-0.287999
-0.278398
-0.270392
-0.263721
-0.258159
-0.220275
-0.226551
-0.234082
-0.243117
-0.253952
-0.29217
-0.251772
-0.218287
-0.207726
-0.198915
-0.191568
-0.185445
-0.184869
-0.190845
-0.198009
-0.206607
-0.216917
-0.249828
-0.212895
-0.182756
-0.17226
-0.163516
-0.15622
-0.150144
-0.150114
-0.156159
-0.163407
-0.172101
-0.182538
-0.212398
-0.212336
-0.182539
-0.172118
-0.163435
-0.1562
-0.150163
-0.116923
-0.123578
-0.131563
-0.141146
-0.152647
-0.189885
-0.18996
-0.152713
-0.141212
-0.131627
-0.123642
-0.116984
-0.117024
-0.123686
-0.131673
-0.141263
-0.152764
-0.19003
-0.190081
-0.152798
-0.141294
-0.131702
-0.12371
-0.117051
-0.117063
-0.123723
-0.131718
-0.141309
-0.152819
-0.190111
-0.190128
-0.15283
-0.141318
-0.131725
-0.123729
-0.117069
-0.0849198
-0.0912231
-0.0987912
-0.10787
-0.118763
-0.15215
-0.15216
-0.118768
-0.107873
-0.0987912
-0.0912255
-0.0849205
-0.0560558
-0.0624652
-0.0701579
-0.0793852
-0.0904582
-0.12003
-0.101987
-0.0668061
-0.0552997
-0.0457071
-0.0377126
-0.0310559
-0.00476182
-0.0105868
-0.0175706
-0.0259536
-0.0360123
-0.0678542
-0.0395688
-0.0104691
-0.000264941
0.00823667
0.0153268
0.0212292
0.0404828
0.0333251
0.0247361
0.0144331
0.00206634
-0.0331977
-0.0253017
0.0119183
0.0262616
0.0382111
0.0481701
0.0564749
0.073587
0.0653737
0.0555204
0.0436932
0.0295004
-0.0103905
0.00801945
0.0509922
0.0630274
0.073059
0.0814162
0.0883805
0.0973839
0.0917069
0.084891
0.0767146
0.066905
0.0329927
0.047557
0.0727223
0.0826983
0.0910126
0.0979414
0.103715
0.109367
0.102498
0.0942619
0.084386
0.0725472
0.0439298
0.0126096
0.0335634
0.0406529
0.0466388
0.0517585
0.0562055
-0.041315
-0.0440435
-0.0467737
-0.0495039
-0.0522336
-0.0611854
-0.149593
-0.145058
-0.144374
-0.143691
-0.143009
-0.142325
-0.243619
-0.243696
-0.243772
-0.24385
-0.243928
-0.245955
-0.345348
-0.344581
-0.34458
-0.34458
-0.344581
-0.344581
-0.445019
-0.445019
-0.445019
-0.445019
-0.445019
-0.445271
-0.545209
-0.545185
-0.545185
-0.545185
-0.545185
-0.545185
-0.645622
-0.645622
-0.645622
-0.645622
-0.645622
-0.645446
-0.746619
-0.747119
-0.747119
-0.747119
-0.747119
-0.747119
-0.850791
-0.850791
-0.850791
-0.850791
-0.850791
-0.849651
-0.956305
-0.95748
-0.957503
-0.957527
-0.957551
-0.957576
-0.9539
-0.953901
-0.953901
-0.953901
-0.953901
-0.952401
-1.06159
-1.06195
-1.06201
-1.06208
-1.06214
-1.06221
-1.05448
-1.05448
-1.05448
-1.05448
-1.05448
-1.05328
-1.04649
-1.04765
-1.04765
-1.04765
-1.04765
-1.04765
-1.04273
-1.04273
-1.04273
-1.04273
-1.04273
-1.04215
-1.03936
-1.03962
-1.03962
-1.03962
-1.03962
-1.03962
-1.03781
-1.03781
-1.03781
-1.03781
-1.03781
-1.03771
-1.03679
-1.03682
-1.03682
-1.03682
-1.03682
-1.03682
-1.03632
-1.03632
-1.03632
-1.03632
-1.03632
-1.03632
-1.03611
-1.03609
-1.03609
-1.03608
-1.03608
-1.03608
-1.03598
-1.03599
-1.03599
-1.03599
-1.036
-1.03603
-1.03607
-1.03604
-1.03604
-1.03603
-1.03603
-1.03603
-1.03625
-1.03625
-1.03625
-1.03626
-1.03625
-1.03624
-1.03658
-1.03664
-1.03664
-1.03664
-1.03664
-1.03664
-1.0373
-1.0373
-1.03731
-1.0373
-1.03731
-1.03717
-1.03812
-1.03838
-1.03838
-1.03837
-1.03838
-1.03837
-1.03999
-1.04
-1.03999
-1.03999
-1.03999
-1.03957
-1.04152
-1.0422
-1.0422
-1.0422
-1.0422
-1.0422
-1.04498
-1.04498
-1.04498
-1.04498
-1.04498
-1.04384
-1.04722
-1.04852
-1.04852
-1.04852
-1.04853
-1.04851
-1.13706
-1.13705
-1.13706
-1.13706
-1.13706
-1.1381
-1.13576
-1.13332
-1.13222
-1.13131
-1.13054
-1.12991
-1.12961
-1.1296
-1.12961
-1.1296
-1.1296
-1.13021
-1.1302
-1.13022
-1.13021
-1.13023
-1.13096
-1.13095
-1.13094
-1.13093
-1.13093
-1.13179
-1.1318
-1.13182
-1.13183
-1.13185
-1.13292
-1.13289
-1.13286
-1.13285
-1.13283
-1.13494
-1.13495
-1.13496
-1.13498
-1.13499
-1.22014
-1.22012
-1.22011
-1.2201
-1.22009
-1.2067
-1.20672
-1.20674
-1.20675
-1.20679
-1.20237
-1.20234
-1.20233
-1.20232
-1.20231
-1.19864
-1.19865
-1.19866
-1.19867
-1.19868
-1.19561
-1.1956
-1.1956
-1.1956
-1.19559
-1.19304
-1.19305
-1.19305
-1.19305
-1.19306
-1.19333
-1.19592
-1.19903
-1.20275
-1.20722
-1.22254
-1.22525
-1.2071
-1.20277
-1.19916
-1.19615
-1.19364
-1.13047
-1.13113
-1.1319
-1.13283
-1.13395
-1.13686
-1.13742
-1.1342
-1.13312
-1.13222
-1.13147
-1.13084
-1.06638
-1.06495
-1.06323
-1.06117
-1.0587
-1.05288
-0.965327
-0.989182
-0.994792
-0.999462
-1.00336
-1.0066
-1.00706
-1.00391
-1.00014
-0.995609
-0.990174
-0.967147
-0.907492
-0.931556
-0.938837
-0.944904
-0.949959
-0.954165
-0.910582
-0.905132
-0.898594
-0.890745
-0.881331
-0.85249
-0.807829
-0.842666
-0.854918
-0.865126
-0.873634
-0.880723
-0.865381
-0.857034
-0.847016
-0.834994
-0.820567
-0.785359
-0.78427
-0.819617
-0.834352
-0.846629
-0.856859
-0.865381
-0.880723
-0.873288
-0.864372
-0.853667
-0.840821
-0.805538
-0.805018
-0.839319
-0.852598
-0.863658
-0.872875
-0.880554
-0.880314
-0.872117
-0.862279
-0.850471
-0.836298
-0.802512
-0.79876
-0.796097
-0.795939
-0.795802
-0.795697
-0.795601
-0.834185
-0.848991
-0.86133
-0.871614
-0.880179
-0.880177
-0.871618
-0.86134
-0.849006
-0.834208
-0.834232
-0.849021
-0.861349
-0.871617
-0.880171
-0.880164
-0.871617
-0.861357
-0.849041
-0.834264
-0.834297
-0.849064
-0.861366
-0.871619
-0.880155
-0.8802
-0.871699
-0.861493
-0.849245
-0.834544
-0.871368
-0.883654
-0.893898
-0.902426
-0.909534
-0.909209
-0.902074
-0.893519
-0.88324
-0.870912
-0.870858
-0.883206
-0.893499
-0.902071
-0.909212
-0.909211
-0.902062
-0.893475
-0.883181
-0.870819
-0.87078
-0.883156
-0.893461
-0.902055
-0.909212
-0.909213
-0.902048
-0.893453
-0.883136
-0.870754
-0.837143
-0.837267
-0.837411
-0.83758
-0.837788
-0.840826