/*--------------------------------*- C++ -*----------------------------------*\
| =========                 |                                                 |
| \\      /  F ield         | OpenFOAM: The Open Source CFD Toolbox           |
|  \\    /   O peration     | Version:  2212                                  |
|   \\  /    A nd           | Website:  www.openfoam.com                      |
|    \\/     M anipulation  |                                                 |
\*---------------------------------------------------------------------------*/
FoamFile
{
    version     2.0;
    format      ascii;
    arch        "LSB;label=32;scalar=64";
    class       volScalarField;
    location    "80";
    object      T;
}
// * * * * * * * * * * * * * * * * * * * * * * * * * * * * * * * * * * * * * //

dimensions      [0 0 0 1 0 0 0];

internalField   nonuniform List<scalar> 
248319
(
300.006
300.002
300.001
300
300
300
300
300
300
300
300.001
300.001
300.003
300.004
300.002
300.001
300.001
300
300
300.001
300.001
300.001
300.001
300.002
300.005
300.003
300.001
300.001
300.001
300
300
300
300
300
300.001
300.001
300.003
300.004
300.001
300.001
300.001
300.001
300.001
300
300
300
300.001
300.002
300.004
300.004
300.001
300.001
300
300
300
300
300
300
300
300.001
300.003
300.003
300.001
300
300
300
300
300
300
300
300.001
300.001
300.004
300.004
300.001
300.001
300
300
300
300
300
300.001
300.001
300.002
300.005
300.006
300.003
300.002
300.001
300.001
300.001
300.001
300.001
300.002
300.002
300.003
300.005
300.004
300.002
300.001
300.001
300.001
300.001
300.001
300.001
300.001
300.001
300.001
300.003
300.003
300.001
300.001
300.001
300.001
300.001
300
300
300.001
300.001
300.002
300.004
300.005
300.002
300.001
300
300
300
300
300
300
300.001
300.002
300.006
300.005
300.001
300.001
300
300
300
300
300
300
300
300.001
300.003
300.006
300.003
300.002
300.001
300.001
300.001
300
300.001
300.001
300.001
300.002
300.005
300.02
300.008
300.005
300.003
300.002
300.002
300.001
300.001
300.002
300.002
300.004
300.014
300.008
300.003
300.002
300.001
300.001
300.001
300
300.001
300.001
300.001
300.002
300.007
300.008
300.004
300.002
300.002
300.001
300.001
300.002
300.002
300.002
300.003
300.004
300.007
300.006
300.004
300.003
300.002
300.002
300.001
300.001
300.001
300.001
300.002
300.003
300.005
300.004
300.002
300.002
300.001
300.001
300.001
300.001
300.001
300.001
300.001
300.001
300.003
300.003
300.001
300.001
300.001
300
300
300
300
300.001
300.001
300.002
300.003
300.004
300.002
300.001
300.001
300
300
300
300
300.001
300.001
300.003
300.006
300.011
300.004
300.002
300.001
300
300
300
300
300.001
300.001
300.003
300.009
300.006
300.001
300.001
300
300
300
300
300
300
300
300.001
300.002
300.009
300.003
300.002
300.001
300.001
300.001
300.002
300.003
300.004
300.006
300.011
300.031
300.025
300.012
300.007
300.004
300.003
300.002
300.003
300.003
300.005
300.008
300.014
300.035
300.025
300.009
300.005
300.003
300.002
300.002
300.002
300.002
300.002
300.004
300.007
300.02
300.011
300.004
300.002
300.001
300.001
300.001
300.001
300.001
300.001
300.002
300.003
300.009
300.009
300.005
300.003
300.002
300.001
300.001
300.002
300.002
300.003
300.004
300.005
300.009
300.007
300.005
300.003
300.002
300.002
300.002
300.002
300.002
300.002
300.003
300.004
300.006
300.005
300.003
300.002
300.002
300.001
300.001
300.001
300.001
300.001
300.002
300.002
300.004
300.003
300.002
300.001
300.001
300.001
300.001
300.001
300.001
300.001
300.001
300.001
300.002
300.002
300.001
300.001
300
300
300
300
300
300.001
300.001
300.002
300.003
300.004
300.002
300.001
300
300
300
300
300
300.001
300.001
300.003
300.006
300.012
300.005
300.002
300.001
300
300
300.001
300.001
300.002
300.005
300.011
300.025
300.021
300.009
300.004
300.002
300.001
300.001
300.001
300.001
300.001
300.003
300.006
300.014
300.007
300.002
300.001
300.001
300
300
300
300
300
300
300.001
300.002
300.011
300.003
300.002
300.001
300.001
300.001
300.002
300.003
300.004
300.006
300.01
300.036
300.06
300.017
300.009
300.006
300.004
300.004
300.003
300.003
300.005
300.008
300.015
300.047
300.064
300.022
300.013
300.008
300.006
300.005
300.004
300.004
300.006
300.01
300.017
300.042
300.029
300.01
300.006
300.004
300.003
300.002
300.002
300.002
300.003
300.005
300.008
300.024
300.014
300.005
300.003
300.002
300.001
300.001
300.001
300.001
300.001
300.002
300.004
300.011
300.011
300.006
300.004
300.002
300.002
300.001
300.002
300.002
300.003
300.005
300.006
300.01
300.008
300.005
300.004
300.003
300.002
300.002
300.002
300.002
300.003
300.003
300.004
300.006
300.004
300.003
300.003
300.002
300.002
300.002
300.001
300.001
300.002
300.002
300.003
300.004
300.003
300.002
300.002
300.001
300.001
300.001
300.001
300.001
300.001
300.001
300.002
300.003
300.003
300.002
300.001
300.001
300.001
300.001
300.001
300.001
300.001
300.001
300.001
300.002
300.002
300.001
300.001
300
300
300
300
300
300
300.001
300.001
300.002
300.003
300.002
300.001
300
300
300
300
300
300
300.001
300.003
300.006
300.013
300.005
300.002
300.001
300
300
300.001
300.002
300.003
300.006
300.012
300.029
300.066
300.032
300.016
300.009
300.006
300.005
300.005
300.005
300.007
300.013
300.025
300.051
300.037
300.018
300.01
300.006
300.004
300.004
300.003
300.003
300.004
300.006
300.011
300.023
300.009
300.004
300.002
300.002
300.001
300.001
300.001
300.001
300.001
300.001
300.001
300.003
300.014
300.005
300.003
300.003
300.002
300.002
300.004
300.004
300.006
300.008
300.014
300.041
300.07
300.023
300.014
300.01
300.008
300.007
300.011
300.012
300.016
300.023
300.036
300.102
300.086
300.028
300.016
300.011
300.008
300.007
300.013
300.014
300.018
300.027
300.042
300.114
300.082
300.034
300.021
300.014
300.01
300.009
300.006
300.007
300.01
300.015
300.024
300.05
300.033
300.012
300.008
300.005
300.004
300.003
300.002
300.003
300.004
300.006
300.009
300.027
300.017
300.006
300.003
300.002
300.001
300.001
300.001
300.001
300.002
300.003
300.005
300.013
300.012
300.007
300.004
300.003
300.002
300.002
300.003
300.003
300.004
300.005
300.007
300.011
300.009
300.006
300.005
300.003
300.003
300.002
300.002
300.002
300.003
300.004
300.005
300.006
300.005
300.003
300.003
300.002
300.002
300.002
300.002
300.002
300.002
300.002
300.002
300.003
300.003
300.002
300.002
300.002
300.001
300.001
300.001
300.001
300.001
300.001
300.002
300.002
300.002
300.002
300.001
300.001
300.001
300.001
300.001
300.001
300.001
300.001
300.002
300.002
300.002
300.001
300.001
300.001
300.001
300.001
300
300
300.001
300.001
300.001
300.002
300.002
300.001
300
300
300
300
300
300
300
300.001
300.001
300.002
300.003
300.002
300.001
300
300
300
300
300
300
300.001
300.002
300.006
300.014
300.005
300.002
300.001
300
300
300.001
300.002
300.003
300.006
300.014
300.034
300.082
300.039
300.019
300.011
300.007
300.006
300.021
300.023
300.031
300.051
300.089
300.165
300.126
300.069
300.04
300.024
300.018
300.016
300.013
300.014
300.019
300.031
300.052
300.093
300.064
300.036
300.022
300.014
300.011
300.01
300.007
300.007
300.009
300.012
300.02
300.038
300.02
300.011
300.007
300.006
300.005
300.005
300.003
300.004
300.004
300.006
300.008
300.012
300.036
300.019
300.013
300.009
300.007
300.007
300.013
300.014
300.017
300.025
300.04
300.075
300.12
300.061
300.039
300.026
300.02
300.019
300.026
300.028
300.037
300.054
300.084
300.168
300.217
300.108
300.07
300.048
300.037
300.034
300.017
300.018
300.023
300.033
300.052
300.134
300.169
300.07
300.046
300.032
300.025
300.023
300.02
300.021
300.028
300.04
300.06
300.143
300.1
300.049
300.033
300.022
300.017
300.015
300.01
300.011
300.015
300.022
300.032
300.058
300.037
300.016
300.01
300.007
300.005
300.004
300.003
300.003
300.004
300.007
300.011
300.03
300.02
300.008
300.004
300.003
300.002
300.002
300.001
300.001
300.002
300.003
300.006
300.015
300.014
300.008
300.005
300.003
300.002
300.002
300.003
300.003
300.005
300.006
300.008
300.012
300.009
300.007
300.005
300.004
300.003
300.003
300.003
300.003
300.003
300.004
300.005
300.007
300.005
300.004
300.003
300.003
300.002
300.002
300.002
300.002
300.002
300.002
300.003
300.003
300.002
300.002
300.002
300.002
300.002
300.002
300.002
300.001
300.001
300.001
300.002
300.002
300.001
300.001
300.001
300.001
300.001
300.001
300.001
300.001
300.001
300.001
300.001
300.002
300.002
300.001
300.001
300.001
300.001
300.001
300.001
300.001
300.001
300.001
300.001
300.002
300.002
300.001
300.001
300.001
300.001
300.001
300
300
300
300.001
300.001
300.001
300.001
300.001
300
300
300
300
300
300
300
300.001
300.001
300.002
300.003
300.001
300.001
300
300
300
300
300
300
300.001
300.002
300.006
300.015
300.006
300.002
300.001
300.001
300
300.001
300.002
300.003
300.007
300.016
300.04
300.101
300.047
300.023
300.013
300.009
300.008
300.029
300.032
300.043
300.067
300.113
300.211
300.328
300.2
300.128
300.085
300.063
300.058
300.042
300.046
300.062
300.094
300.151
300.253
300.189
300.113
300.07
300.046
300.035
300.032
300.024
300.026
300.034
300.052
300.082
300.136
300.089
300.054
300.035
300.024
300.019
300.018
300.011
300.012
300.014
300.02
300.03
300.05
300.027
300.012
300.009
300.007
300.006
300.006
300.01
300.011
300.014
300.019
300.028
300.061
300.052
300.028
300.019
300.013
300.01
300.009
300.016
300.018
300.023
300.033
300.052
300.102
300.159
300.074
300.047
300.032
300.025
300.023
300.032
300.035
300.044
300.063
300.097
300.217
300.275
300.127
300.085
300.059
300.047
300.043
300.06
300.064
300.081
300.113
300.165
300.335
300.265
300.137
300.091
300.064
300.05
300.046
300.061
300.066
300.084
300.118
300.173
300.317
300.205
300.092
300.062
300.044
300.034
300.032
300.028
300.031
300.039
300.055
300.08
300.173
300.119
300.067
300.046
300.032
300.024
300.022
300.014
300.016
300.021
300.029
300.041
300.065
300.04
300.02
300.013
300.009
300.007
300.006
300.004
300.004
300.005
300.008
300.013
300.034
300.024
300.009
300.005
300.003
300.002
300.002
300.001
300.002
300.002
300.004
300.007
300.018
300.016
300.009
300.006
300.004
300.003
300.002
300.004
300.004
300.005
300.007
300.01
300.013
300.01
300.008
300.006
300.005
300.004
300.003
300.003
300.003
300.004
300.005
300.006
300.007
300.005
300.004
300.003
300.003
300.003
300.003
300.003
300.002
300.002
300.002
300.003
300.003
300.002
300.002
300.002
300.002
300.002
300.003
300.002
300.002
300.001
300.001
300.001
300.001
300.001
300.001
300.001
300.001
300.001
300.002
300.002
300.001
300.001
300.001
300.001
300.001
300.001
300.001
300.001
300.001
300.001
300.001
300.001
300.001
300.001
300.001
300.001
300.001
300.001
300.001
300.001
300.001
300.001
300.001
300.001
300.001
300.001
300.001
300.001
300.002
300.002
300.001
300.001
300.001
300
300
300
300
300
300
300.001
300.001
300.001
300.001
300
300
300
300
300
300
300
300.001
300.001
300.002
300.003
300.001
300.001
300
300
300
300
300
300
300.001
300.003
300.006
300.017
300.006
300.003
300.001
300.001
300
300.002
300.002
300.003
300.008
300.019
300.047
300.123
300.056
300.029
300.017
300.013
300.012
300.043
300.047
300.062
300.092
300.148
300.264
300.412
300.278
300.188
300.129
300.097
300.088
300.132
300.144
300.188
300.263
300.361
300.477
300.405
300.274
300.185
300.127
300.096
300.088
300.066
300.072
300.094
300.138
300.207
300.319
300.243
300.155
300.102
300.07
300.054
300.05
300.037
300.04
300.051
300.074
300.112
300.175
300.118
300.071
300.047
300.033
300.026
300.025
300.017
300.018
300.021
300.028
300.041
300.08
300.062
300.041
300.029
300.021
300.017
300.016
300.018
300.02
300.025
300.038
300.061
300.114
300.184
300.093
300.057
300.039
300.03
300.028
300.017
300.018
300.023
300.032
300.049
300.112
300.168
300.07
300.046
300.033
300.026
300.025
300.034
300.036
300.045
300.062
300.094
300.225
300.282
300.123
300.083
300.06
300.049
300.046
300.061
300.066
300.08
300.109
300.158
300.342
300.405
300.198
300.139
300.103
300.083
300.078
300.077
300.083
300.104
300.145
300.208
300.394
300.458
300.259
300.182
300.131
300.104
300.096
300.078
300.084
300.107
300.149
300.216
300.368
300.242
300.116
300.079
300.057
300.045
300.041
300.038
300.041
300.052
300.072
300.103
300.204
300.137
300.086
300.061
300.044
300.033
300.03
300.019
300.021
300.027
300.038
300.051
300.072
300.044
300.025
300.017
300.012
300.009
300.008
300.004
300.005
300.007
300.01
300.016
300.038
300.027
300.011
300.007
300.004
300.003
300.003
300.002
300.002
300.003
300.004
300.008
300.02
300.017
300.011
300.007
300.005
300.003
300.003
300.004
300.005
300.006
300.008
300.011
300.014
300.01
300.008
300.007
300.005
300.004
300.004
300.004
300.004
300.004
300.005
300.006
300.007
300.005
300.004
300.004
300.004
300.003
300.004
300.003
300.003
300.003
300.003
300.003
300.003
300.002
300.002
300.002
300.002
300.003
300.003
300.003
300.002
300.002
300.001
300.001
300.001
300.001
300.001
300.001
300.001
300.002
300.003
300.002
300.001
300.001
300.001
300.001
300.001
300
300
300.001
300.001
300.001
300.002
300.001
300.001
300.001
300.001
300
300.001
300.001
300.001
300.001
300.001
300.001
300.001
300.001
300.001
300.001
300.001
300.001
300.001
300.001
300.001
300.001
300.001
300.001
300.001
300
300
300.001
300.001
300.001
300.001
300.001
300.001
300.001
300
300
300
300
300
300
300
300
300.001
300.001
300
300
300
300
300
300
300
300
300
300.001
300.001
300.003
300.001
300.001
300
300
300
300
300
300
300.001
300.003
300.007
300.019
300.007
300.003
300.001
300.001
300
300.002
300.002
300.004
300.008
300.021
300.055
300.146
300.065
300.034
300.022
300.017
300.016
300.056
300.061
300.08
300.118
300.184
300.317
300.476
300.33
300.227
300.157
300.119
300.109
300.165
300.162
300.197
300.272
300.368
300.478
300.524
300.386
300.299
300.296
300.465
300.615
303.595
309.964
329.343
375.467
451.616
447.46
366.31
321.487
306.241
302.216
300.796
302.53
312.529
353.252
441.984
433.756
340.631
307.087
301.101
300.41
300.432
300.789
304.731
332.104
425.15
419.578
328.07
303.984
300.815
300.554
300.856
301.143
304.62
329.512
421.193
421.251
329.534
304.651
301.167
300.868
300.85
300.825
300.84
301.094
304.147
327.586
419.231
417.368
325.714
303.45
300.79
300.591
300.469
300.744
304.082
329.69
424.052
434.756
338.761
306.319
301.025
300.443
301.012
302.775
312.739
355.066
447.309
457.022
374.706
326.008
308.957
303.889
307.101
315.78
338.271
388.67
462.066
461.303
387.798
336.18
313.461
305.134
302.62
307.526
324.394
373.796
455.916
445.324
353.204
312.117
302.536
300.819
300.441
301.011
306.134
337.644
433.02
423.202
329.319
304.077
300.772
300.487
300.62
300.819
303.447
325.503
417.02
417.217
326.045
303.862
301.137
300.903
300.855
300.587
300.442
300.339
300.296
300.391
300.597
300.167
300.179
300.229
300.312
300.416
300.537
300.458
300.34
300.248
300.178
300.137
300.124
300.095
300.103
300.133
300.188
300.267
300.374
300.294
300.202
300.142
300.1
300.079
300.073
300.054
300.057
300.071
300.098
300.143
300.219
300.162
300.091
300.065
300.049
300.041
300.038
300.038
300.041
300.052
300.071
300.101
300.147
300.089
300.04
300.028
300.022
300.019
300.018
300.022
300.023
300.028
300.039
300.059
300.147
300.138
300.061
300.039
300.027
300.022
300.02
300.031
300.033
300.041
300.06
300.093
300.217
300.304
300.126
300.081
300.056
300.044
300.041
300.039
300.042
300.053
300.079
300.128
300.263
300.348
300.159
300.098
300.067
300.052
300.048
300.061
300.066
300.083
300.12
300.19
300.434
300.524
300.224
300.145
300.102
300.081
300.075
300.094
300.1
300.125
300.176
300.267
300.614
300.706
300.319
300.212
300.15
300.119
300.111
300.097
300.104
300.127
300.171
300.241
300.467
300.536
300.29
300.206
300.152
300.124
300.115
300.118
300.128
300.16
300.222
300.314
300.523
300.421
300.263
300.184
300.131
300.104
300.096
300.053
300.057
300.071
300.099
300.143
300.281
300.236
300.129
300.091
300.066
300.052
300.047
300.04
300.044
300.056
300.078
300.107
300.155
300.078
300.062
300.047
300.034
300.026
300.024
300.01
300.011
300.015
300.022
300.031
300.048
300.042
300.019
300.012
300.008
300.006
300.005
300.003
300.004
300.005
300.008
300.013
300.031
300.023
300.009
300.005
300.003
300.002
300.002
300.003
300.004
300.006
300.008
300.012
300.019
300.015
300.012
300.009
300.007
300.006
300.005
300.005
300.005
300.006
300.008
300.009
300.011
300.007
300.007
300.006
300.005
300.005
300.005
300.004
300.004
300.004
300.004
300.004
300.005
300.003
300.003
300.003
300.003
300.004
300.004
300.004
300.003
300.003
300.002
300.002
300.001
300.001
300.001
300.001
300.002
300.003
300.004
300.004
300.002
300.001
300.001
300.001
300.001
300
300
300.001
300.001
300.002
300.003
300.002
300.002
300.001
300.001
300
300
300
300
300
300.001
300.001
300.002
300.001
300.001
300.001
300
300
300
300
300
300
300.001
300.001
300.001
300.001
300.001
300
300
300
300.001
300.001
300.001
300
300
300.001
300.001
300.001
300
300
300
300.001
300.001
300.001
300.001
300.001
300
300
300
300
300
300
300
300.001
300.001
300.001
300
300
300
300
300
300
300
300
300
300
300.001
300.001
300.001
300
300
300
300
300
300
300
300.001
300.001
300.003
300.007
300.003
300.001
300
300
300
300
300.001
300.001
300.003
300.008
300.022
300.063
300.023
300.009
300.004
300.002
300.002
300.016
300.017
300.023
300.037
300.072
300.165
300.356
300.206
300.13
300.087
300.065
300.059
300.116
300.127
300.168
300.244
300.352
300.51
300.532
300.557
300.891
304.946
333.438
429.311
439.315
445.305
448.058
444.748
444.094
365.116
363.778
361.568
352.454
342.898
307.147
311.386
316.02
321.175
323.976
307.854
305.961
303.233
301.893
301.044
300.449
300.475
300.874
301.902
302.607
300.509
300.423
300.295
300.295
300.381
300.424
300.374
300.328
300.399
300.439
301.85
301.701
301.318
301.506
301.112
304.045
305.554
304.75
305.488
305.745
318.294
319.008
319.784
320.856
316.873
360.134
366.529
366.299
358.284
354.97
437.226
440.589
450.471
451.998
449.142
441.182
346.802
310.152
301.944
300.679
300.541
300.931
300.905
301.531
308.026
341.363
435.946
422.452
330.102
304.657
301.14
300.878
300.909
300.838
301.156
301.178
301.681
306.607
335.78
426.964
432.467
339.73
307.565
301.829
301.214
301.174
301.095
301.147
301.629
306.372
335.962
429.08
423.447
330.936
305.213
301.62
301.262
301.178
301.27
301.369
301.832
306.213
334.523
427.285
419.391
328.066
304.384
301.229
300.942
300.884
300.59
300.62
300.837
303.506
325.267
415.41
418.598
426.929
438.417
449.292
455.968
379.53
365.282
346.932
333.835
327.249
303.774
305.352
310.168
320.275
330.442
309.628
305.547
302.03
300.892
300.735
300.473
300.404
300.629
301.684
302.992
300.363
300.301
300.27
300.326
300.434
300.412
300.303
300.219
300.169
300.154
300.124
300.136
300.178
300.25
300.343
300.455
300.368
300.266
300.19
300.135
300.105
300.096
300.078
300.084
300.106
300.148
300.207
300.287
300.219
300.153
300.109
300.079
300.064
300.06
300.038
300.04
300.047
300.062
300.088
300.169
300.244
300.104
300.068
300.048
300.039
300.036
300.035
300.038
300.047
300.068
300.107
300.241
300.224
300.115
300.069
300.046
300.036
300.033
300.044
300.048
300.062
300.093
300.154
300.318
300.222
300.089
300.058
300.041
300.034
300.032
300.042
300.045
300.055
300.076
300.117
300.301
300.38
300.143
300.093
300.067
300.054
300.051
300.052
300.056
300.07
300.1
300.155
300.388
300.473
300.185
300.12
300.085
300.068
300.064
300.078
300.084
300.104
300.145
300.219
300.557
300.638
300.258
300.172
300.124
300.099
300.092
300.108
300.116
300.145
300.202
300.301
300.716
300.792
300.347
300.231
300.164
300.131
300.121
300.13
300.14
300.176
300.25
300.378
300.795
300.885
300.441
300.289
300.201
300.158
300.145
300.136
300.145
300.178
300.241
300.338
300.603
300.591
300.375
300.265
300.189
300.149
300.138
300.117
300.127
300.16
300.222
300.314
300.476
300.322
300.172
300.12
300.086
300.068
300.063
300.06
300.065
300.081
300.112
300.157
300.27
300.172
300.129
300.096
300.069
300.054
300.049
300.03
300.033
300.042
300.057
300.072
300.083
300.051
300.037
300.027
300.019
300.014
300.013
300.007
300.008
300.01
300.015
300.022
300.046
300.034
300.016
300.01
300.006
300.004
300.004
300.002
300.003
300.004
300.007
300.011
300.026
300.021
300.014
300.009
300.006
300.004
300.004
300.006
300.006
300.008
300.011
300.013
300.017
300.012
300.01
300.008
300.007
300.006
300.006
300.005
300.005
300.006
300.006
300.007
300.008
300.005
300.005
300.005
300.005
300.005
300.005
300.005
300.004
300.004
300.003
300.003
300.003
300.001
300.002
300.002
300.003
300.004
300.005
300.005
300.004
300.002
300.002
300.001
300.001
300
300.001
300.001
300.002
300.003
300.005
300.004
300.003
300.001
300.001
300
300
300
300
300.001
300.001
300.002
300.004
300.003
300.002
300.001
300
300
300
300
300
300
300.001
300.002
300.002
300.002
300.001
300.001
300
300
300
300
300
300
300.001
300.001
300.001
300.001
300.001
300
300
300
300
300
300
300
300
300.001
300.001
300.001
300
300
300
300
300.001
300.001
300.001
300
300
300
300
300
300
300
300
300.001
300.001
300.001
300.001
300
300
300
300
300
300
300
300
300
300.001
300.001
300
300
300
300
300
300
300
300
300
300.001
300.001
300.003
300.001
300.001
300
300
300
300
300
300
300.001
300.003
300.008
300.025
300.009
300.003
300.001
300.001
300
300.002
300.002
300.004
300.009
300.025
300.07
300.179
300.074
300.036
300.022
300.017
300.015
300.057
300.063
300.086
300.131
300.212
300.375
300.524
300.355
300.246
300.168
300.125
300.112
300.104
300.117
300.161
300.243
300.356
300.527
300.617
301.595
305.389
319.602
362.451
449.92
455.108
453.501
445.609
433.04
430.323
345.245
348.933
361.436
372.15
373.865
327.313
325.961
319.133
314.634
312.95
303.702
304.139
305.015
308.144
308.862
302.748
302.481
301.406
301.268
301.168
300.361
300.36
300.338
300.468
300.57
301.78
301.016
300.418
300.331
300.301
300.868
301.091
301.746
304.859
307.914
317.749
312.088
305.496
303.458
302.784
310.804
312.585
319.03
330.873
339.699
384.788
375.073
359.679
345.735
342.712
430.613
432.677
445.581
454.047
458.542
457.582
382.114
337.719
316.692
307.473
302.013
302.236
306.792
314.771
333.923
376.785
454.763
445.659
355.852
315.889
304.091
301.461
300.96
301.39
301.968
304.925
317.57
358.606
447.143
437.535
344.299
309.45
302.088
301.267
301.318
301.255
301.22
301.593
305.89
333.148
423.793
426.046
336.197
307.205
302.135
301.626
301.656
301.48
301.554
302.288
308.371
340.093
430.16
439.592
347.997
310.567
302.666
301.651
301.539
301.415
301.543
302.263
308.319
341.641
434.366
427.201
334.527
306.521
302.235
301.739
301.592
301.787
301.971
302.613
307.904
338.969
431.622
442.901
349.969
311.335
303.33
302.276
302.021
301.395
301.535
302.308
308.899
344.203
438.59
428.818
334.379
305.835
301.45
301.014
300.943
300.615
300.44
300.32
300.249
300.244
300.266
302.188
307.864
326.696
373.516
451.834
446.794
363.021
319.146
304.914
301.351
300.581
302.02
310.569
348.358
439.346
430.575
336.493
305.92
300.941
300.399
300.477
300.782
304.29
330.058
423.567
421.627
328.651
304.162
300.919
300.646
300.693
301.115
305.716
335.809
432.314
436.905
339.682
306.447
301.035
300.507
300.441
301.322
308.639
346.609
441.11
443.604
354.771
313.224
302.532
300.651
301.265
304.863
319.151
361.473
444.432
446.783
366.543
323.266
306.704
301.791
300.257
300.244
300.253
300.326
300.459
300.655
300.552
300.423
300.314
300.223
300.164
300.145
300.147
300.167
300.226
300.318
300.426
300.544
300.44
300.333
300.247
300.178
300.135
300.122
300.107
300.118
300.152
300.208
300.279
300.362
300.3
300.215
300.158
300.115
300.09
300.083
300.084
300.094
300.123
300.169
300.226
300.296
300.232
300.159
300.114
300.083
300.067
300.062
300.062
300.068
300.087
300.12
300.165
300.228
300.306
300.184
300.118
300.079
300.06
300.054
300.065
300.071
300.094
300.142
300.225
300.381
300.318
300.134
300.087
300.061
300.049
300.045
300.046
300.049
300.062
300.09
300.141
300.325
300.402
300.168
300.106
300.073
300.058
300.054
300.054
300.059
300.076
300.113
300.189
300.407
300.485
300.206
300.123
300.083
300.065
300.06
300.066
300.071
300.09
300.131
300.216
300.55
300.448
300.168
300.111
300.08
300.065
300.061
300.073
300.078
300.095
300.13
300.196
300.515
300.577
300.224
300.15
300.11
300.089
300.083
300.094
300.1
300.124
300.17
300.253
300.634
300.686
300.28
300.187
300.135
300.109
300.101
300.109
300.117
300.146
300.203
300.305
300.734
300.858
300.388
300.258
300.182
300.144
300.133
300.145
300.157
300.198
300.284
300.429
300.923
300.969
300.502
300.326
300.224
300.175
300.161
300.153
300.164
300.202
300.276
300.389
300.673
300.663
300.441
300.31
300.22
300.173
300.16
300.137
300.148
300.187
300.261
300.366
300.532
300.365
300.204
300.143
300.102
300.081
300.075
300.071
300.077
300.097
300.134
300.186
300.305
300.187
300.151
300.115
300.084
300.065
300.059
300.036
300.04
300.05
300.066
300.081
300.087
300.054
300.043
300.032
300.023
300.017
300.016
300.008
300.009
300.012
300.018
300.027
300.05
300.038
300.019
300.012
300.008
300.005
300.005
300.003
300.003
300.005
300.008
300.013
300.029
300.023
300.016
300.011
300.007
300.005
300.004
300.007
300.007
300.009
300.012
300.015
300.018
300.013
300.011
300.009
300.008
300.007
300.007
300.006
300.006
300.007
300.007
300.008
300.008
300.005
300.005
300.005
300.005
300.006
300.006
300.007
300.005
300.004
300.004
300.003
300.003
300.001
300.002
300.003
300.004
300.005
300.007
300.007
300.005
300.003
300.002
300.001
300.001
300
300.001
300.001
300.002
300.004
300.006
300.006
300.003
300.002
300.001
300
300
300
300
300.001
300.002
300.003
300.005
300.004
300.002
300.001
300.001
300
300
300
300
300.001
300.001
300.002
300.003
300.002
300.001
300.001
300.001
300
300
300
300
300
300.001
300.001
300.002
300.001
300.001
300.001
300
300
300
300
300
300
300
300.001
300.001
300.001
300.001
300
300
300
300
300
300
300
300
300
300.001
300
300
300
300
300
300
300.001
300
300
300
300
300
300
300
300
300
300.001
300.001
300.001
300
300
300
300
300
300
300
300
300
300
300.001
300.001
300
300
300
300
300
300
300
300
300
300.001
300.001
300.003
300.001
300.001
300
300
300
300
300
300
300.001
300.003
300.009
300.028
300.009
300.003
300.001
300.001
300
300.002
300.002
300.004
300.009
300.026
300.076
300.185
300.073
300.034
300.02
300.015
300.014
300.051
300.057
300.078
300.122
300.202
300.375
300.357
300.176
300.104
300.066
300.049
300.045
300.093
300.104
300.149
300.295
300.518
300.711
300.646
300.442
300.249
300.129
300.092
300.084
300.139
300.209
300.47
301.601
303.743
305.708
308.582
304.619
301.892
300.579
300.265
300.206
300.425
300.488
300.835
302.723
306.837
319.723
309.235
303.204
301.73
301.711
307.657
306.795
309.475
318.781
332.895
357.876
342.087
330.678
326.577
330.028
383.065
377.453
381.9
391.36
402.636
466.983
463.213
458.707
456.322
459.291
461.487
456.234
452.857
453.948
458.075
379.878
373.18
372.012
378
388.315
335.379
328.698
325.858
327.377
331.932
316.639
311.042
308.554
308.68
310.757
302.934
302.568
303.069
305.674
311.521
306.031
302.361
301.04
300.779
300.802
300.559
300.572
300.818
301.795
304.23
312.49
318.525
333.86
340.096
354.076
393.944
463.252
466.725
403.922
368.406
354.762
347.442
325.291
319.035
342.611
361.244
388.033
425.742
474.807
464.879
400.49
358.242
333.593
319.613
306.516
306.411
320.709
334.874
359.991
402.915
466.345
456.139
379.115
335.691
315.974
307.659
302.759
303.387
308.814
317.693
338.152
382.002
457.611
448.762
361.989
320.171
306.387
302.748
301.893
301.748
301.692
302.824
311.08
347.287
439.371
440.014
348.717
312.271
303.576
302.226
302.252
302.095
302.07
302.658
307.996
337.48
427.025
430.83
341.25
309.178
302.836
301.993
301.841
301.999
302.16
303.292
311.477
349.228
440.28
435.259
343.07
309.27
302.898
302.046
301.817
302.123
302.337
302.955
307.59
336.392
428.706
432.701
340.7
309.131
303.543
302.777
302.487
302.862
303.239
304.433
312.711
351.548
443.51
450.516
361.879
317.109
305.617
303.792
303.396
302.34
302.636
304.362
315.791
360.955
450.546
445.026
352.47
311.818
302.902
301.731
301.586
301.04
301.104
301.721
307.445
340.349
435.495
438.222
343.83
308.506
301.925
301.195
301.147
300.676
300.453
300.314
300.233
300.208
300.206
300.969
303.934
315.116
350.375
433.341
429.89
347.115
313.125
303.109
300.759
300.491
301.984
310.716
346.028
432.087
434.746
343.983
308.338
301.243
300.399
300.489
301.023
306.7
340.287
434.338
434.14
338.354
306.338
301.194
300.713
300.837
302.043
310.578
348.747
442.7
442.876
352.137
312.717
302.572
300.73
300.448
301.87
311.555
350.58
440.466
431.688
344.612
310.575
301.998
300.473
300.567
302.306
310.18
339.975
423.691
424.799
340.457
310.545
302.53
300.628
300.193
300.2
300.233
300.322
300.491
300.758
300.77
300.495
300.334
300.229
300.168
300.148
300.144
300.161
300.216
300.306
300.43
300.628
300.533
300.4
300.295
300.21
300.157
300.14
300.117
300.127
300.164
300.228
300.313
300.433
300.363
300.238
300.178
300.134
300.108
300.099
300.103
300.117
300.153
300.209
300.279
300.365
300.474
300.295
300.197
300.134
300.1
300.091
300.084
300.092
300.122
300.18
300.262
300.379
300.377
300.25
300.167
300.112
300.084
300.076
300.061
300.066
300.086
300.127
300.192
300.303
300.368
300.219
300.144
300.098
300.076
300.07
300.077
300.083
300.105
300.153
300.233
300.422
300.429
300.245
300.154
300.102
300.078
300.071
300.052
300.056
300.07
300.098
300.151
300.373
300.415
300.159
300.103
300.073
300.059
300.055
300.058
300.063
300.078
300.113
300.178
300.455
300.495
300.18
300.115
300.082
300.065
300.061
300.065
300.07
300.086
300.12
300.184
300.525
300.595
300.217
300.136
300.095
300.076
300.07
300.077
300.083
300.103
300.145
300.223
300.628
300.649
300.238
300.155
300.11
300.088
300.082
300.088
300.094
300.117
300.165
300.251
300.661
300.669
300.263
300.173
300.123
300.098
300.091
300.096
300.103
300.129
300.181
300.274
300.677
300.77
300.324
300.214
300.152
300.12
300.111
300.115
300.124
300.157
300.224
300.342
300.804
300.974
300.462
300.303
300.21
300.164
300.15
300.176
300.191
300.246
300.36
300.559
301.047
300.745
300.437
300.309
300.224
300.18
300.167
300.183
300.197
300.251
300.356
300.507
300.744
300.589
300.417
300.299
300.215
300.169
300.155
300.088
300.095
300.12
300.167
300.238
300.41
300.339
300.218
300.158
300.114
300.09
300.082
300.071
300.077
300.099
300.134
300.172
300.203
300.093
300.09
300.076
300.059
300.046
300.042
300.019
300.021
300.027
300.038
300.05
300.058
300.054
300.031