/*--------------------------------*- C++ -*----------------------------------*\
| =========                 |                                                 |
| \\      /  F ield         | OpenFOAM: The Open Source CFD Toolbox           |
|  \\    /   O peration     | Version:  2212                                  |
|   \\  /    A nd           | Website:  www.openfoam.com                      |
|    \\/     M anipulation  |                                                 |
\*---------------------------------------------------------------------------*/
FoamFile
{
    version     2.0;
    format      ascii;
    arch        "LSB;label=32;scalar=64";
    class       volScalarField;
    location    "10";
    object      p;
}
// * * * * * * * * * * * * * * * * * * * * * * * * * * * * * * * * * * * * * //

dimensions      [0 2 -2 0 0 0 0];

internalField   nonuniform List<scalar> 
248319
(
0
0.0192695
0.040267
0.0499128
0.0579559
0.0646608
0.0702554
0.109352
0.103285
0.0960113
0.0872877
0.0768268
0.051034
0.0498398
0.0761475
0.0872815
0.0965783
0.104337
0.110808
0.0812846
0.0764133
0.070623
0.0636924
0.0553638
0.0331053
0.0137339
0.0280263
0.0342409
0.0395424
0.044108
0.0480821
0.0626383
0.0578009
0.0520033
0.0450641
0.0367551
0.0196919
-0.0539312
-0.0471669
-0.04342
-0.0402945
-0.0376725
-0.0354954
-0.0212076
-0.0246769
-0.0288377
-0.0338183
-0.0397871
-0.0507562
-0.0555231
-0.0401898
-0.0334445
-0.0278271
-0.0231452
-0.0192278
0.0634956
0.057456
0.0502067
0.0415139
0.0310902
0.000560008
0.0309014
0.0593163
0.0692924
0.0776099
0.0845398
0.09032
0.100155
0.0945075
0.087732
0.0796043
0.06986
0.0359147
0.049957
0.0749824
0.0847459
0.0928835
0.0996676
0.105322
0.109544
0.10302
0.0951995
0.0858233
0.0745844
0.0473303
0.019096
0.0397698
0.0463971
0.051924
0.0566074
0.0606567
-0.0356023
-0.0383332
-0.041064
-0.0437926
-0.0465225
-0.0535455
-0.0514824
-0.0438327
-0.0414439
-0.039203
-0.0370643
-0.034999
-0.140357
-0.140767
-0.141158
-0.141527
-0.141866
-0.145242
-0.144799
-0.141916
-0.140934
-0.140118
-0.139435
-0.138861
-0.132483
-0.133761
-0.135308
-0.137148
-0.139359
-0.14442
-0.145872
-0.13934
-0.136665
-0.134436
-0.132565
-0.131024
-0.133943
-0.135581
-0.137559
-0.139919
-0.142764
-0.15015
-0.0695422
-0.0525361
-0.0457135
-0.0400261
-0.035292
-0.0313293
0.0473557
0.0407353
0.0327941
0.0232619
0.0118336
-0.0194307
-0.00912598
0.0315763
0.0453124
0.0567654
0.0663159
0.0742781
0.0901998
0.0833944
0.0752335
0.0654418
0.0536985
0.0104364
0.00969251
0.0523515
0.0641892
0.074056
0.0822793
0.0891355
0.0979126
0.0923314
0.0856344
0.0775974
0.0679552
0.0345112
0.0489719
0.0735503
0.0833487
0.0915129
0.0983162
0.103983
0.109507
0.102812
0.0947855
0.0851628
0.0736264
0.0456669
0.0148174
0.0354437
0.0422291
0.0479423
0.052824
0.0570705
-0.0392029
-0.0419191
-0.0446371
-0.0473554
-0.050076
-0.0586586
-0.147586
-0.143279
-0.142561
-0.141843
-0.141125
-0.140407
-0.139414
-0.140117
-0.140817
-0.141516
-0.142214
-0.14616
-0.243963
-0.242317
-0.242245
-0.242172
-0.242099
-0.242025
-0.242931
-0.242919
-0.242885
-0.242825
-0.242727
-0.243724
-0.243255
-0.242345
-0.242218
-0.242109
-0.242023
-0.241955
-0.238634
-0.238956
-0.239338
-0.239805
-0.240357
-0.242572
-0.242818
-0.239763
-0.239042
-0.238438
-0.237939
-0.237512
-0.23807
-0.238538
-0.239102
-0.23977
-0.240571
-0.244178
-0.245607
-0.241448
-0.240471
-0.239662
-0.238978
-0.238419
-0.13617
-0.138013
-0.140231
-0.142887
-0.146075
-0.154273
-0.077345
-0.059624
-0.0524673
-0.0464997
-0.0415334
-0.0373867
0.0342679
0.0274907
0.0193565
0.00959154
-0.00211152
-0.0327997
-0.0252412
0.0126763
0.0267071
0.0384054
0.0481583
0.0562854
0.056871
0.0486035
0.0386805
0.026777
0.0124968
-0.0246826
-0.0090869
0.030732
0.0447532
0.0564395
0.0661817
0.0743026
0.073983
0.0657812
0.0559401
0.0441343
0.029965
-0.00970567
0.00877301
0.05146
0.0634595
0.0734568
0.0817893
0.0887341
0.0976214
0.0919619
0.0851727
0.0770241
0.0672476
0.0335995
0.0481145
0.0730281
0.0829565
0.0912297
0.0981249
0.103868
0.10947
0.102664
0.0945011
0.0847156
0.0729829
0.0445772
0.0133338
0.0340415
0.0410142
0.0469009
0.051941
0.0563279
-0.0406741
-0.0433973
-0.0461199
-0.0488426
-0.0515666
-0.0603516
-0.148636
-0.144081
-0.143405
-0.14273
-0.142055
-0.14138
-0.242656
-0.242732
-0.242808
-0.242885
-0.242961
-0.24505
-0.244442
-0.242421
-0.242349
-0.242277
-0.242205
-0.242131
-0.343367
-0.343365
-0.343362
-0.343361
-0.343357
-0.344136
-0.343908
-0.343345
-0.343367
-0.343388
-0.34341
-0.343431
-0.344166
-0.344113
-0.344049
-0.343971
-0.343875
-0.343964
-0.34363
-0.343533
-0.343585
-0.343634
-0.343673
-0.343707
-0.341901
-0.341948
-0.342001
-0.34207
-0.342152
-0.34298
-0.342926
-0.341668
-0.341538
-0.341425
-0.341336
-0.341269
-0.34141
-0.341492
-0.341602
-0.341736
-0.341888
-0.343414
-0.343893
-0.342075
-0.341887
-0.341722
-0.341591
-0.341479
-0.340692
-0.340886
-0.341102
-0.341373
-0.341694
-0.343944
-0.245996
-0.241027
-0.23965
-0.238504
-0.237541
-0.236755
-0.134455
-0.136773
-0.139561
-0.142902
-0.146904
-0.156165
-0.0817767
-0.0632494
-0.0552806
-0.0486348
-0.0431116
-0.0384889
0.0240314
0.0175527
0.00977574
0.000443795
-0.0107419
-0.040453
-0.0341274
0.00132675
0.0136416
0.02391
0.03247
0.0396031
0.0406166
0.0334453
0.0248402
0.0145164
0.00213224
-0.0330417
-0.0328531
0.00224899
0.0146205
0.0249319
0.033527
0.040688
0.0567783
0.0484747
0.0385104
0.0265577
0.0122153
-0.0248203
-0.0249819
0.0121099
0.0264529
0.0384047
0.0483654
0.0566648
0.0737966
0.0655835
0.0557274
0.043898
0.0297061
-0.0100466
0.00833467
0.0511749
0.0632113
0.0732366
0.0815954
0.0885585
0.097508
0.0918292
0.0850177
0.0768418
0.0670277
0.0332019
0.04774
0.072836
0.0828063
0.0911125
0.0980354
0.103802
0.109435
0.102584
0.0943663
0.0845141
0.072703
0.0441174
0.0127882
0.0336122
0.0406537
0.0465998
0.0516921
0.0561205
-0.0411476
-0.0438665
-0.0465846
-0.0493034
-0.0520235
-0.0609499
-0.149232
-0.144669
-0.14399
-0.14331
-0.14263
-0.141951
-0.243105
-0.243181
-0.243258
-0.243335
-0.243411
-0.245488
-0.344766
-0.343941
-0.343941
-0.343941
-0.343941
-0.343941
-0.343635
-0.343635
-0.343635
-0.343635
-0.343635
-0.344469
-0.444233
-0.443907
-0.443907
-0.443907
-0.443907
-0.443907
-0.443759
-0.443758
-0.443757
-0.443756
-0.443753
-0.444038
-0.443952
-0.443798
-0.443813
-0.443828
-0.443842
-0.443855
-0.444412
-0.444382
-0.444343
-0.444296
-0.444241
-0.444092
-0.443943
-0.444076
-0.444133
-0.444185
-0.44423
-0.444262
-0.443341
-0.443341
-0.443336
-0.44333
-0.443326
-0.443584
-0.443652
-0.443205
-0.443201
-0.443186
-0.443182
-0.443166
-0.443524
-0.443547
-0.443543
-0.443565
-0.443581
-0.444093
-0.444663
-0.444122
-0.444087
-0.444071
-0.444061
-0.444038
-0.444339
-0.444364
-0.4444
-0.444436
-0.444491
-0.445115
-0.445329
-0.444509
-0.444393
-0.44429
-0.444215
-0.444151
-0.338825
-0.339192
-0.339613
-0.340128
-0.340742
-0.343632
-0.24579
-0.239602
-0.237421
-0.235602
-0.234075
-0.232815
-0.124254
-0.127507
-0.131422
-0.136117
-0.141755
-0.15465
-0.0824495
-0.0605655
-0.0512868
-0.0435488
-0.0371157
-0.0317291
0.0162284
0.0100252
0.00258348
-0.00634519
-0.0170549
-0.0445477
-0.0406598
-0.0114652
-0.00115749
0.00743847
0.0146
0.0205733
0.0213122
0.0153922
0.00829126
-0.000231441
-0.0104534
-0.0394938
-0.0392638
-0.0102804
-8.078e-05
0.00842126
0.0155051
0.0214116
0.0213923
0.0154887
0.00841306
-8.20276e-05
-0.0102797
-0.0392918
-0.0329001
0.00224612
0.0146073
0.0249097
0.0334925
0.040645
0.0406003
0.0334485
0.0248687
0.0145683
0.00220816
-0.0329906
-0.0251078
0.0120431
0.0263847
0.0383359
0.0482941
0.0565915
0.0737049
0.0654892
0.0556305
0.043798
0.0296032
-0.0102216
0.00814706
0.0510756
0.0631168
0.0731488
0.0815126
0.0884805
0.0974603
0.0917788
0.0849612
0.0767801
0.0669616
0.0330593
0.0476141
0.0727801
0.0827604
0.0910754
0.0980057
0.103779
0.10943
0.102562
0.0943257
0.0844498
0.0726116
0.0439792
0.0126374
0.0335674
0.040649
0.0466291
0.0517472
0.0561929
-0.041297
-0.0440253
-0.0467528
-0.0494802
-0.0522087
-0.0611617
-0.149484
-0.14493
-0.144248
-0.143567
-0.142885
-0.142201
-0.243367
-0.243444
-0.243522
-0.243597
-0.243675
-0.245732
-0.344975
-0.344172
-0.344172
-0.344172
-0.344172
-0.344172
-0.444327
-0.444327
-0.444327
-0.444327
-0.444327
-0.444628
-0.444445
-0.444125
-0.444125
-0.444125
-0.444125
-0.444125
-0.543684
-0.543684
-0.543684
-0.543684
-0.543684
-0.543819
-0.543638
-0.543498
-0.543498
-0.543498
-0.543498
-0.543498
-0.543392
-0.543391
-0.543392
-0.54339
-0.543389
-0.543509
-0.54348
-0.543435
-0.543443
-0.54345
-0.543457
-0.543464
-0.543846
-0.54383
-0.543811
-0.543786
-0.543758
-0.543624
-0.543626
-0.543764
-0.543802
-0.543827
-0.543846
-0.543877
-0.54355
-0.543535
-0.543545
-0.543532
-0.543525
-0.543569
-0.543875
-0.543783
-0.543776
-0.543792
-0.543772
-0.543781
-0.54452
-0.544512
-0.544531
-0.544521
-0.544526
-0.544562
-0.545565
-0.545644
-0.545643
-0.545646
-0.545635
-0.545639
-0.546986
-0.54699
-0.546996
-0.546997
-0.547003
-0.546782
-0.548058
-0.548399
-0.548373
-0.548368
-0.548348
-0.548337
-0.549241
-0.549265
-0.549305
-0.549339
-0.549388
-0.54902
-0.445276
-0.44408
-0.443807
-0.443582
-0.443397
-0.443239
-0.336016
-0.336674
-0.337445
-0.33838
-0.339505
-0.343261
-0.246613
-0.238918
-0.235603
-0.232836
-0.230521
-0.2286
-0.121696
-0.125736
-0.130602
-0.136441
-0.143446
-0.159667
-0.109536
-0.0814577
-0.0711406
-0.0625347
-0.0553627
-0.0493806
-0.0144457
-0.0203678
-0.0274613
-0.0359787
-0.0461926
-0.0735909
-0.0681218
-0.0357707
-0.02572
-0.0173427
-0.0103548
-0.00452649
-0.00454453
-0.0103629
-0.0173367
-0.0257039
-0.0357489
-0.067575
-0.0674853
-0.0357616
-0.0257162
-0.0173457
-0.0103702
-0.00455545
-0.00459756
-0.0104105
-0.0173881
-0.0257553
-0.0357989
-0.0675484
-0.0676358
-0.0358523
-0.025803
-0.0174303
-0.0104528
-0.00463701
0.021358
0.0154545
0.00837658
-0.000120688
-0.0103205
-0.0393666
-0.039426
-0.0103573
-0.00015648
0.00834498
0.0154278
0.021331
0.0405745
0.0334202
0.0248362
0.0145352
0.00217358
-0.0330543
-0.0251768
0.0120084
0.0263484
0.0382988
0.0482576
0.0565569
0.0736647
0.0654492
0.0555906
0.0437604
0.0295668
-0.0102958
0.00808377
0.0510455
0.0630857
0.0731192
0.0814833
0.0884509
0.097447
0.0917643
0.0849454
0.0767647
0.0669505
0.0330268
0.0475899
0.0727721
0.082752
0.0910679
0.0979984
0.103773
0.109427
0.102558
0.0943185
0.0844389
0.0725981
0.0439551
0.0126105
0.0335648
0.0406503
0.0466325
0.0517536
0.0562006
-0.0413204
-0.0440515
-0.0467799
-0.049508
-0.0522383
-0.0611977
-0.14956
-0.145014
-0.144332
-0.143649
-0.142969
-0.142285
-0.243488
-0.243566
-0.243642
-0.243719
-0.243796
-0.245837
-0.345098
-0.344309
-0.344309
-0.344309
-0.344309
-0.344309
-0.444489
-0.444489
-0.444489
-0.444489
-0.444489
-0.444777
-0.544229
-0.544125
-0.544125
-0.544125
-0.544125
-0.544125
-0.543899
-0.543899
-0.543899
-0.543899
-0.543899
-0.544018
-0.643121
-0.643082
-0.643082
-0.643082
-0.643082
-0.643082
-0.642787
-0.642787
-0.642787
-0.642787
-0.642786
-0.642844
-0.642643
-0.642575
-0.642575
-0.642575
-0.642575
-0.642575
-0.642461
-0.642461
-0.642461
-0.64246
-0.642461
-0.642523
-0.642504
-0.642478
-0.642481
-0.642483
-0.642485
-0.642488
-0.64273
-0.642723
-0.642716
-0.642708
-0.642695
-0.64262
-0.642716
-0.64281
-0.642818
-0.64283
-0.64285
-0.642849
-0.642904
-0.642912
-0.642902
-0.642904
-0.642903
-0.642874
-0.643383
-0.643435
-0.643441
-0.643437
-0.643436
-0.643436
-0.644509
-0.644514
-0.644505
-0.644516
-0.644507
-0.644332
-0.645777
-0.646161
-0.646165
-0.646153
-0.646162
-0.646157
-0.648392
-0.648394
-0.648399
-0.648402
-0.648399
-0.647747
-0.650134
-0.651083
-0.651088
-0.651083
-0.651075
-0.651079
-0.653582
-0.653583
-0.653591
-0.653596
-0.653599
-0.65244
-0.65315
-0.654466
-0.654441
-0.654432
-0.65441
-0.654407
-0.548885
-0.548957
-0.549037
-0.54913
-0.549244
-0.549013
-0.444997
-0.443159
-0.442589
-0.442112
-0.441716
-0.441392
-0.332354
-0.333507
-0.334858
-0.336496
-0.338462
-0.343522
-0.247248
-0.235326
-0.230285
-0.226082
-0.222562
-0.219656
-0.12563
-0.130287
-0.135874
-0.142578
-0.150618
-0.170091
-0.12672
-0.0995295
-0.089023
-0.0802629
-0.0729605
-0.0668747
-0.0553041
-0.0618714
-0.0697598
-0.0792169
-0.0905648
-0.121048
-0.102488
-0.0664351
-0.0548935
-0.0452693
-0.0372485
-0.0305592
-0.0307035
-0.037356
-0.0453385
-0.0549145
-0.0664038
-0.101739
-0.101619
-0.0665018
-0.0550122
-0.045434
-0.0374508
-0.0307991
-0.0308709
-0.0375235
-0.045508
-0.055086
-0.0665794
-0.101669
-0.101755
-0.0666386
-0.0551403
-0.0455621
-0.0375748
-0.0309198
-0.030951
-0.0376057
-0.0455953
-0.0551785
-0.0666817
-0.101823
-0.0676995
-0.0358927
-0.0258385
-0.0174609
-0.0104812
-0.00466227
-0.00467449
-0.0104967
-0.0174786
-0.0258615
-0.0359155
-0.0677392
-0.0394611
-0.0103781
-0.000174969
0.0083245
0.0154121
0.0213146
0.0405614
0.0334051
0.02482
0.0145171
0.00215301
-0.0330914
-0.0252097
0.0119921
0.0263337
0.0382848
0.0482454
0.0565427
0.0736535
0.0654384
0.05558
0.04375
0.0295569
-0.0103196
0.008073
0.0510428
0.0630808
0.073114
0.0814778
0.0884432
0.0974468
0.0917639
0.0849478
0.0767686
0.0669536
0.0330318
0.047598
0.072775
0.0827558
0.0910723
0.0980011
0.103776
0.109432
0.102562
0.0943224
0.0844426
0.0726013
0.0439712
0.0126378
0.0336033
0.0406949
0.0466806
0.051803
0.0562519
-0.0413016
-0.0440307
-0.0467586
-0.0494889
-0.0522197
-0.0611785
-0.149563
-0.145026
-0.144344
-0.14366
-0.142977
-0.142295
-0.24353
-0.243606
-0.243683
-0.243762
-0.243838
-0.24587
-0.345166
-0.344388
-0.344388
-0.344388
-0.344388
-0.344388
-0.444624
-0.444624
-0.444624
-0.444624
-0.444624
-0.444901
-0.544459
-0.544372
-0.544372
-0.544372
-0.544372
-0.544372
-0.643952
-0.643952
-0.643952
-0.643952
-0.643952
-0.643925
-0.64348
-0.64347
-0.64347
-0.64347
-0.64347
-0.64347
-0.742799
-0.742799
-0.742799
-0.742799
-0.742798
-0.742724
-0.742081
-0.742102
-0.742102
-0.742102
-0.742102
-0.742102
-0.74162
-0.74162
-0.741619
-0.741619
-0.741619
-0.741634
-0.74135
-0.741316
-0.741316
-0.741316
-0.741316
-0.741316
-0.741155
-0.741155
-0.741155
-0.741155
-0.741155
-0.741194
-0.741154
-0.741124
-0.741126
-0.741125
-0.741127
-0.741128
-0.741243
-0.741242
-0.741242
-0.741242
-0.741242
-0.741226
-0.741357
-0.741397
-0.741397
-0.741399
-0.741401
-0.741403
-0.741689
-0.741689
-0.741688
-0.741688
-0.741689
-0.741639
-0.74226
-0.742381
-0.742377
-0.742372
-0.742381
-0.742376
-0.743633
-0.743627
-0.743628
-0.743624
-0.743635
-0.743359
-0.74507
-0.745584
-0.745576
-0.745588
-0.745579
-0.745585
-0.748367
-0.748366
-0.74837
-0.748362
-0.748366
-0.747515
-0.750657
-0.751939
-0.751936
-0.751936
-0.751937
-0.751938
-0.755743
-0.755756
-0.75574
-0.755753
-0.75575
-0.754067
-0.756929
-0.758223
-0.758224
-0.758209
-0.758223
-0.758209
-0.752276
-0.752281
-0.75228
-0.752296
-0.752297
-0.750839
-0.650055
-0.651366
-0.651309
-0.651275
-0.651232
-0.651215
-0.546462
-0.546636
-0.546815
-0.547033
-0.547307
-0.547501
-0.444537
-0.441736
-0.440661
-0.439763
-0.439011
-0.438398
-0.328927
-0.330735
-0.332893
-0.335493
-0.338604
-0.345422
-0.25531
-0.239661
-0.233147
-0.227716
-0.223184
-0.219415
-0.140886
-0.146767
-0.153811
-0.162274
-0.172412
-0.201221
-0.16097
-0.133887
-0.123793
-0.115374
-0.108353
-0.102494
-0.084469
-0.0908975
-0.0986056
-0.107852
-0.118937
-0.153218
-0.151966
-0.11836
-0.107464
-0.098378
-0.0908067
-0.0844945
-0.055642
-0.0620579
-0.0697647
-0.0790072
-0.0900965
-0.119841
-0.119656
-0.0901309
-0.0790695
-0.0698503
-0.0621677
-0.0557665
-0.0558578
-0.0622575
-0.0699358
-0.0791524
-0.0902088
-0.119713
-0.119799
-0.0902767
-0.0792171
-0.0699982
-0.0623152
-0.0559159
-0.0559493
-0.0623508
-0.0700365
-0.0792602
-0.0903248
-0.119866
-0.119906
-0.0903514
-0.0792858
-0.0700578
-0.0623719
-0.0559652
-0.0309673
-0.0376218
-0.0456138
-0.0551996
-0.0667074
-0.101866
-0.10189
-0.0667184
-0.0552103
-0.0456245
-0.0376326
-0.0309726
-0.0046845
-0.0105024
-0.0174874
-0.0258703
-0.0359265
-0.0677628
-0.0394803
-0.010388
-0.000183005
0.00831868
0.015404
0.0213096
0.0405562
0.0334012
0.0248127
0.0145092
0.00214404
-0.0331113
-0.0252251
0.0119871
0.0263297
0.03828
0.0482411
0.0565404
0.0736544
0.0654392
0.0555791
0.0437531
0.029559
-0.0103246
0.00807768
0.0510493
0.0630871
0.0731175
0.0814795
0.0884466
0.0974507
0.0917697
0.0849555
0.0767774
0.0669627
0.0330449
0.0476091
0.0727823
0.0827632
0.0910784
0.0980078
0.103781
0.109436
0.102565
0.0943271
0.0844486
0.0726075
0.0439821
0.0126548
0.0336161
0.0407064
0.0466932
0.0518127
0.0562594
-0.0412746
-0.0440034
-0.0467322
-0.0494625
-0.0521944
-0.0611503
-0.149546
-0.145011
-0.144329
-0.143645
-0.142961
-0.142279
-0.243541
-0.243617
-0.243695
-0.243774
-0.24385
-0.245877
-0.345212
-0.344438
-0.344438
-0.344438
-0.344438
-0.344438
-0.444742
-0.444742
-0.444742
-0.444742
-0.444742
-0.445011
-0.5447
-0.544636
-0.544636
-0.544636
-0.544636
-0.544636
-0.644504
-0.644504
-0.644504
-0.644504
-0.644504
-0.644427
-0.744586
-0.744852
-0.744852
-0.744852
-0.744852
-0.744852
-0.743733
-0.743733
-0.743733
-0.743733
-0.743733
-0.743576
-0.843746
-0.844101
-0.844101
-0.844102
-0.844102
-0.844102
-0.842363
-0.842363
-0.842363
-0.842363
-0.842362
-0.842175
-0.84105
-0.841131
-0.841131
-0.841131
-0.841132
-0.841132
-0.840338
-0.840338
-0.840338
-0.840338
-0.840338
-0.840317
-0.839881
-0.839871
-0.839871
-0.839871
-0.839871
-0.839871
-0.839625
-0.839625
-0.839625
-0.839625
-0.839625
-0.83965
-0.839566
-0.839533
-0.839534
-0.839533
-0.839532
-0.839531
-0.839554
-0.839558
-0.839563
-0.839566
-0.839571
-0.839589
-0.839717
-0.83972
-0.839719
-0.839711
-0.839708
-0.839705
-0.840074
-0.840079
-0.840071
-0.840075
-0.840078
-0.84003
-0.840651
-0.840783
-0.840775
-0.840778
-0.840783
-0.840778
-0.84201
-0.84201
-0.842018
-0.842007
-0.842014
-0.84173
-0.843433
-0.843954
-0.843954
-0.843954
-0.843955
-0.84395
-0.846795
-0.84681
-0.846796
-0.846803
-0.846805
-0.845923
-0.849188
-0.850591
-0.850581
-0.850583
-0.850592
-0.850585
-0.854898
-0.854888
-0.854894
-0.854885
-0.854896
-0.85275
-0.855937
-0.85857
-0.858566
-0.858565
-0.858564
-0.858566
-0.85915
-0.859154
-0.85915
-0.859154
-0.859153
-0.857929
-0.901109
-0.901515
-0.901503
-0.901493
-0.901483
-0.901476
-0.924978
-0.933659
-0.940896
-0.94693
-0.951959
-0.951957
-0.946929
-0.940899
-0.933668
-0.92499
-0.925002
-0.933678
-0.940911
-0.946934
-0.95195
-0.951953
-0.94693
-0.94091
-0.933684
-0.92502
-0.925036
-0.933697
-0.940921
-0.946927
-0.951945
-0.952102
-0.946938
-0.940748
-0.933315
-0.924395
-0.925612
-0.934314
-0.941569
-0.947608
-0.952645
-0.909846
-0.903411
-0.895691
-0.886425
-0.875303
-0.848715
-0.804994
-0.83796
-0.851528
-0.862834
-0.872255
-0.880104
-0.879949
-0.871934
-0.862311
-0.850765
-0.836907
-0.837445
-0.851115
-0.862506
-0.872
-0.879908
-0.879919
-0.872008
-0.862511
-0.851114
-0.837438
-0.837437
-0.851119
-0.862516
-0.872014
-0.87993
-0.879947
-0.872025
-0.862522
-0.851118
-0.837437
-0.837434
-0.851119
-0.862525
-0.87203
-0.87995
-0.865219
-0.856728
-0.84654
-0.834314
-0.819641
-0.819642
-0.834311
-0.846535
-0.856723
-0.865211
-0.865203
-0.856716
-0.84653
-0.834307
-0.819643
-0.819641
-0.834304
-0.846524
-0.856705
-0.865192
-0.865178
-0.856698
-0.846518
-0.834302
-0.819643
-0.818169
-0.833262
-0.845839
-0.856316
-0.865044
-0.864997
-0.856165
-0.845563
-0.832838
-0.817568
-0.782336
-0.78227
-0.782338
-0.782321
-0.782302
-0.782283
-0.78228
-0.718759
-0.718817
-0.718863
-0.718932
-0.71901
-0.717918
-0.636381
-0.63678
-0.636404
-0.636104
-0.635834
-0.635627
-0.536243
-0.536956
-0.537786
-0.538811
-0.54002
-0.542361
-0.446096
-0.439669
-0.436509
-0.433883
-0.431677
-0.429851
-0.321542
-0.325248
-0.329682
-0.335011
-0.341397
-0.356555
-0.302091
-0.273918
-0.264314
-0.256312
-0.249636
-0.244075
-0.204005
-0.209586
-0.216296
-0.224339
-0.233977
-0.26018
-0.22207
-0.19505
-0.185063
-0.176733
-0.169793
-0.164005
-0.150208
-0.15647
-0.163976
-0.172982
-0.183787
-0.214726
-0.191856
-0.153397
-0.141675
-0.131903
-0.123757
-0.116967
-0.116717
-0.123404
-0.13142
-0.141041
-0.152584
-0.190221
-0.189845
-0.15253
-0.141021
-0.131428
-0.123439
-0.116773
-0.0846102
-0.0909085
-0.0984696
-0.107543
-0.118424
-0.151779
-0.151821
-0.118502
-0.107624
-0.0985585
-0.0910025
-0.0847109
-0.0847737
-0.0910686
-0.0986269
-0.107696
-0.118581
-0.151913
-0.151986
-0.118632
-0.107742
-0.0986702
-0.0911095
-0.0848126
-0.0848301
-0.0911296
-0.098696
-0.107767
-0.118662
-0.15203
-0.152058
-0.118678
-0.107783
-0.0987097
-0.0911412
-0.0848381
-0.0559737
-0.062383
-0.0700712
-0.0792992
-0.0903667
-0.119931
-0.119943
-0.0903743
-0.0793034
-0.0700767
-0.0623863
-0.055977
-0.0309762
-0.0376361
-0.045628
-0.0552184
-0.0667245
-0.101902
-0.067771
-0.0359316
-0.025873
-0.0174927
-0.0105053
-0.00468736
0.0213067
0.015401
0.00831568
-0.00018807
-0.0103915
-0.0394883
-0.0331199
0.00214109
0.0145063
0.0248098
0.0334002
0.0405558
0.0565449
0.0482416
0.0382807
0.0263321
0.0119895
-0.0252287
-0.0103209
0.0295673
0.0437614
0.0555867
0.0654426
0.0736579
0.0884495
0.0814848
0.0731255
0.0630951
0.051058
0.00808688
0.0330569
0.0669726
0.0767837
0.0849611
0.0917761
0.0974541
0.103786
0.0980114
0.0910811
0.0827681
0.0727909
0.0476202
0.0439952
0.0726162
0.0844551
0.094331
0.102568
0.109439
0.0562747
0.0518285
0.0467083
0.0407222
0.0336326
0.0126735
-0.0611273
-0.0521735
-0.0494425
-0.0467136
-0.0439825
-0.0412527
-0.142263
-0.142945
-0.143628
-0.144311
-0.144994
-0.149529
-0.245878
-0.24385
-0.243773
-0.243696
-0.243619
-0.243541
-0.344473
-0.344473
-0.344473
-0.344473
-0.344473
-0.345243
-0.445109
-0.444849
-0.444848
-0.444849
-0.444849
-0.444848
-0.54489
-0.54489
-0.54489
-0.54489
-0.54489
-0.544932
-0.644931
-0.645061
-0.645061
-0.645061
-0.645061
-0.645061
-0.746018
-0.746018
-0.746018
-0.746018
-0.746018
-0.745629
-0.847751
-0.848624
-0.848624
-0.848624
-0.848624
-0.848624
-0.846281
-0.846281
-0.846281
-0.846281
-0.846281
-0.845688
-0.948221
-0.949399
-0.949399
-0.949399
-0.9494
-0.9494
-0.945372
-0.945372
-0.945372
-0.945372
-0.945372
-0.944689
-0.941968
-0.942322
-0.942322
-0.942322
-0.942322
-0.942322
-0.940282
-0.940282
-0.940282
-0.940282
-0.940281
-0.940119
-0.938974
-0.939033
-0.939033
-0.939033
-0.939033
-0.939033
-0.93833
-0.93833
-0.93833
-0.93833
-0.93833
-0.938321
-0.937983
-0.937968
-0.937968
-0.937968
-0.937968
-0.937968
-0.937803
-0.937806
-0.937807
-0.937807
-0.937809
-0.937837
-0.937809
-0.937778
-0.937771
-0.937766
-0.937761
-0.937756
-0.937864
-0.937868
-0.937872
-0.937879
-0.937891
-0.937902
-0.938175
-0.93821
-0.938203
-0.938203
-0.938203
-0.938202
-0.938791
-0.938791
-0.938792
-0.938795
-0.938793
-0.93869
-0.939581
-0.939806
-0.939815
-0.939803
-0.939812
-0.939807
-0.941429
-0.941424
-0.941424
-0.941428
-0.941428
-0.941003
-0.943117
-0.943845
-0.943845
-0.943846
-0.943833
-0.943849
-0.947127
-0.947123
-0.947132
-0.947134
-0.947125
-0.945909
-0.948979
-0.95113
-0.951135
-0.951137
-0.951127
-0.95113
-0.955556
-0.955542
-0.955555
-0.955551
-0.955549
-0.951504
-0.967587
-0.985494
-0.99163
-0.996743
-1.001
-1.00455
-1.00399
-1.00398
-1.00398
-1.00399
-1.00399
-1.00048
-1.00049
-1.00049
-1.00049
-1.0005
-0.996307
-0.9963
-0.99629
-0.996284
-0.996274
-0.991226
-0.991239
-0.99125
-0.991271
-0.99129
-0.985256
-0.985225
-0.985201
-0.985188
-0.985167
-0.969791
-0.969793
-0.969812
-0.969825
-0.969841
-1.05296
-1.05294
-1.05293
-1.05292
-1.0529
-1.05689
-1.05691
-1.05693
-1.05695
-1.05699
-1.05943
-1.05941
-1.05939
-1.05937
-1.05936
-1.06142
-1.06142
-1.06144
-1.06145
-1.06146
-1.06316
-1.06315
-1.06314
-1.06314
-1.06314
-1.06457
-1.06457
-1.06456
-1.06458
-1.06457
-1.06503
-1.06358
-1.06182
-1.05972
-1.05719
-1.05264
-1.05238
-1.05777
-1.06034
-1.06248
-1.06426
-1.06574
-1.00564
-1.00217
-0.997995
-0.992987
-0.986971
-0.965286
-0.901919
-0.904832
-0.929403
-0.93716
-0.943626
-0.949011
-0.953493
-0.910318
-0.904549
-0.897628
-0.889324
-0.87936
-0.851368
-0.807271
-0.841095
-0.853759
-0.864314
-0.873105
-0.880434
-0.865207
-0.85669
-0.846469
-0.834205
-0.819483
-0.784343
-0.783256
-0.818519
-0.833558
-0.846088
-0.856529
-0.865225
-0.86506
-0.856047
-0.845227
-0.832239
-0.816652
-0.781205
-0.780765
-0.817091
-0.83256
-0.84545
-0.856186
-0.865134
-0.865268
-0.865278
-0.865287
-0.865291
-0.865297
-0.856547
-0.856543
-0.85654
-0.856535
-0.856529
-0.846043
-0.846043
-0.846044
-0.846044
-0.846045
-0.833441
-0.833443
-0.833448
-0.833451
-0.833456
-0.818355
-0.818342
-0.818334
-0.818323
-0.818316
-0.780284
-0.780313
-0.780349
-0.780403
-0.780456
-0.716382
-0.716111
-0.715881
-0.715694
-0.715531
-0.630651
-0.631181
-0.631823
-0.632573
-0.633494
-0.634351
-0.541583
-0.53697
-0.534581
-0.532584
-0.530936
-0.529538
-0.420733
-0.423661
-0.427197
-0.431441
-0.436517
-0.447888
-0.370475
-0.351976
-0.344474
-0.338227
-0.333013
-0.328663
-0.270521
-0.275862
-0.282272
-0.289961
-0.299186
-0.325057
-0.317597
-0.287935
-0.278334
-0.270328
-0.263657
-0.258095
-0.220211
-0.226487
-0.234018
-0.243053
-0.253888
-0.292106
-0.251709
-0.218224
-0.207662
-0.198852
-0.191505
-0.185383
-0.184804
-0.19078
-0.197944
-0.206542
-0.216852
-0.249763
-0.21283
-0.182691
-0.172195
-0.163451
-0.156156
-0.15008
-0.150048
-0.156092
-0.163341
-0.172034
-0.182472
-0.212332
-0.212268
-0.18247
-0.172049
-0.163366
-0.156131
-0.150094
-0.116855
-0.123511
-0.131496
-0.141078
-0.152579
-0.189817
-0.18989
-0.152644
-0.141142
-0.131557
-0.123572
-0.116914
-0.116952
-0.123614
-0.131601
-0.14119
-0.152692
-0.189957
-0.190005
-0.152723
-0.141219
-0.131627
-0.123635
-0.116976
-0.116985
-0.123645
-0.131641
-0.141232
-0.152741
-0.190033
-0.190048
-0.15275
-0.141238
-0.131645
-0.123649
-0.116989
-0.0848411
-0.0911444
-0.0987125
-0.107791
-0.118684
-0.152071
-0.152079
-0.118687
-0.107792
-0.0987103
-0.0911447
-0.0848396
-0.055975
-0.0623844
-0.0700771
-0.0793044
-0.0903774
-0.119949
-0.101908
-0.0667272
-0.0552209
-0.0456283
-0.0376337
-0.030977
-0.00468428
-0.0105093
-0.0174931
-0.0258761
-0.0359348
-0.0677763
-0.0394921
-0.0103926
-0.000188418
0.00831318
0.0154033
0.0213057
0.0405583
0.0334007
0.0248117
0.0145087
0.00214195
-0.0331219
-0.0252268
0.011993
0.0263363
0.0382857
0.0482447
0.0565496
0.0736611
0.0654478
0.0555945
0.0437673
0.0295745
-0.0103162
0.00809332
0.0510659
0.0631011
0.0731328
0.0814899
0.0884543
0.0974576
0.0917806
0.0849646
0.0767882
0.0669786
0.0330665
0.0476305
0.0727957
0.0827718
0.0910861
0.0980149
0.103788
0.109441
0.102572
0.0943356
0.0844597
0.072621
0.0440035
0.0126831
0.0336368
0.0407263
0.0467122
0.0518319
0.0562789
-0.0412409
-0.0439694
-0.0466996
-0.0494298
-0.0521594
-0.061111
-0.149518
-0.144983
-0.144299
-0.143616
-0.142934
-0.14225
-0.243542
-0.243619
-0.243695
-0.243772
-0.243851
-0.245878
-0.345268
-0.344501
-0.344501
-0.344501
-0.344501
-0.344501
-0.444937
-0.444937
-0.444937
-0.444937
-0.444937
-0.445188
-0.545123
-0.545099
-0.545099
-0.545099
-0.545099
-0.545099
-0.645532
-0.645532
-0.645532
-0.645532
-0.645532
-0.645356
-0.746523
-0.747024
-0.747024
-0.747024
-0.747024
-0.747024
-0.85069
-0.85069
-0.85069
-0.85069
-0.85069
-0.84955
-0.956195
-0.95737
-0.957394
-0.957418
-0.957441
-0.957467
-0.953793
-0.953793
-0.953793
-0.953793
-0.953793
-0.952293
-1.06147
-1.06183
-1.0619
-1.06196
-1.06203
-1.06209
-1.05436
-1.05436
-1.05436
-1.05436
-1.05436
-1.05317
-1.04638
-1.04754
-1.04754
-1.04754
-1.04754
-1.04754
-1.04263
-1.04263
-1.04263
-1.04263
-1.04263
-1.04205
-1.03926
-1.03953
-1.03953
-1.03953
-1.03953
-1.03953
-1.03772
-1.03772
-1.03772
-1.03772
-1.03772
-1.03762
-1.03671
-1.03674
-1.03674
-1.03674
-1.03674
-1.03674
-1.03624
-1.03624
-1.03624
-1.03624
-1.03624
-1.03624
-1.03603
-1.03601
-1.03601
-1.03601
-1.03601
-1.03601
-1.03591
-1.03591
-1.03591
-1.03592
-1.03592
-1.03595
-1.03599
-1.03597
-1.03596
-1.03595
-1.03595
-1.03595
-1.03617
-1.03617
-1.03617
-1.03618
-1.03617
-1.03617
-1.03649
-1.03655
-1.03656
-1.03656
-1.03655
-1.03655
-1.03721
-1.03721
-1.03722
-1.03721
-1.03722
-1.03708
-1.03803
-1.03828
-1.03828
-1.03828
-1.03828
-1.03828
-1.03989
-1.0399
-1.03989
-1.03989
-1.03989
-1.03948
-1.04142
-1.0421
-1.04209
-1.04209
-1.04209
-1.04209
-1.04487
-1.04488
-1.04487
-1.04488
-1.04487
-1.04374
-1.04711
-1.0484
-1.0484
-1.0484
-1.04841
-1.0484
-1.13693
-1.13693
-1.13693
-1.13693
-1.13693
-1.13797
-1.13562
-1.13317
-1.13207
-1.13115
-1.13038
-1.12974
-1.12944
-1.12943
-1.12944
-1.12943
-1.12944
-1.13004
-1.13003
-1.13005
-1.13004
-1.13006
-1.1308
-1.13078
-1.13078
-1.13076
-1.13076
-1.13163
-1.13164
-1.13165
-1.13167
-1.13169
-1.13276
-1.13274
-1.13271
-1.13269
-1.13268
-1.1348
-1.1348
-1.13482
-1.13483
-1.13485
-1.21999
-1.21997
-1.21995
-1.21995
-1.21993
-1.20652
-1.20654
-1.20656
-1.20658
-1.20661
-1.20219
-1.20216
-1.20215
-1.20214
-1.20212
-1.19846
-1.19847
-1.19847
-1.19848
-1.1985
-1.19542
-1.19542
-1.19541
-1.19541
-1.19541
-1.19286
-1.19286
-1.19286
-1.19286
-1.19287
-1.19314
-1.19574
-1.19885
-1.20258
-1.20705
-1.22238
-1.2251
-1.20694
-1.2026
-1.19898
-1.19597
-1.19346
-1.13031
-1.13096
-1.13175
-1.13268
-1.13381
-1.13673
-1.13729
-1.13406
-1.13298
-1.13207
-1.13132
-1.13069
-1.06625
-1.06482
-1.06311
-1.06105
-1.05859
-1.05277
-0.965238
-0.989088
-0.994697
-0.999365
-1.00326
-1.0065
-1.00695
-1.00381
-1.00004
-0.995511
-0.990078
-0.967056
-0.907411
-0.931476
-0.938757
-0.944824
-0.949878
-0.954085
-0.910515
-0.905065
-0.898526
-0.890678
-0.881263
-0.852421
-0.80776
-0.8426
-0.854853
-0.865061
-0.873569
-0.880659
-0.865316
-0.856969
-0.84695
-0.834928
-0.8205
-0.78529
-0.784201
-0.81955
-0.834285
-0.846562
-0.856792
-0.865314
-0.880648
-0.873214
-0.864299
-0.853594
-0.840748
-0.805464
-0.804944
-0.839244
-0.852522
-0.863582
-0.872798
-0.880477
-0.880237
-0.872041
-0.862204
-0.850397
-0.836224
-0.802438
-0.798683
-0.796016
-0.795856
-0.795719
-0.795614
-0.795519
-0.834098
-0.848904
-0.861242
-0.871525
-0.880091
-0.880089
-0.871529
-0.861251
-0.848919
-0.834121
-0.834146
-0.848934
-0.861261
-0.871529
-0.880083
-0.880077
-0.871529
-0.861269
-0.848954
-0.834178
-0.834213
-0.848979
-0.861281
-0.871533
-0.88007
-0.880121
-0.87162
-0.861415
-0.849167
-0.834466
-0.871279
-0.883563
-0.893805
-0.902333
-0.909441
-0.90911
-0.901975
-0.893421
-0.883143
-0.870818
-0.870762
-0.883108
-0.893399
-0.90197
-0.909112
-0.90911
-0.90196
-0.893375
-0.883083
-0.870723
-0.870684
-0.883058
-0.893361
-0.901954
-0.909111
-0.909112
-0.901947
-0.893353
-0.883038
-0.870659
-0.837054
-0.837178
-0.837322
-0.837491
-0.8377
-0.840741