/*--------------------------------*- C++ -*----------------------------------*\
| =========                 |                                                 |
| \\      /  F ield         | OpenFOAM: The Open Source CFD Toolbox           |
|  \\    /   O peration     | Version:  2212                                  |
|   \\  /    A nd           | Website:  www.openfoam.com                      |
|    \\/     M anipulation  |                                                 |
\*---------------------------------------------------------------------------*/
FoamFile
{
    version     2.0;
    format      ascii;
    arch        "LSB;label=32;scalar=64";
    class       volScalarField;
    location    "10";
    object      T;
}
// * * * * * * * * * * * * * * * * * * * * * * * * * * * * * * * * * * * * * //

dimensions      [0 0 0 1 0 0 0];

internalField   nonuniform List<scalar> 
248319
(
300
300
300
300
300
300
300
300
300
300
300
300
300
300
300
300
300
300
300
300
300
300
300
300
300
300
300
300
300
300
300
300
300
300
300
300
300
300
300
300
300
300
300
300
300
300
300
300
300
300
300
300
300
300
300
300
300
300
300
300
300
300
300
300
300
300
300
300
300
300
300
300
300
300
300
300
300
300
300
300
300
300
300
300
300
300
300
300
300
300
300
300
300
300
300
300
300
300
300
300
300
300
300
300
300
300
300
300
300
300
300
300
300
300
300
300
300
300
300
300
300
300
300
300
300
300
300
300
300
300
300
300
300
300
300
300
300
300
300
300
300
300
300
300
300
300
300
300
300
300
300
300
300
300
300
300
300
300
300
300
300
300
300
300
300
300
300
300
300
300
300
300
300
300
300
300
300
300
300
300
300
300
300
300
300
300
300
300
300
300
300
300
300
300
300
300
300
300
300
300
300
300
300
300
300
300
300
300
300
300
300
300
300
300
300
300
300
300
300
300
300
300
300
300
300
300
300
300
300
300
300
300
300
300
300
300
300
300
300
300
300
300
300
300
300
300
300
300
300
300
300
300
300
300
300
300
300
300
300
300
300
300
300
300
300
300
300
300
300
300
300
300
300
300
300
300
300
300
300
300
300
300
300
300
300
300
300
300
300
300
300
300
300
300
300
300
300
300
300
300
300
300
300
300
300
300
300
300
300
300
300
300
300
300
300
300
300
300
300
300
300
300
300
300
300
300
300
300
300
300
300
300
300
300
300
300
300
300
300
300
300
300
300
300
300
300
300
300
300
300
300
300
300
300
300
300
300
300
300
300
300
300
300
300
300
300
300
300
300
300
300
300
300
300
300
300
300
300
300
300
300
300
300
300
300
300
300
300
300
300
300
300
300
300
300
300
300
300
300
300
300
300
300
300
300
300
300
300
300
300
300
300
300
300
300
300
300
300
300
300
300
300
300
300
300
300
300
300
300
300
300
300
300
300
300
300
300
300
300
300
300
300
300
300
300
300
300
300
300
300
300
300
300
300
300
300
300
300
300
300
300
300
300
300
300
300
300
300
300
300
300
300
300
300
300
300
300
300
300
300
300
300
300
300
300
300
300
300
300
300
300
300
300
300
300
300
300
300
300
300
300
300
300
300
300
300
300
300
300
300
300
300
300
300
300
300
300
300
300
300
300
300
300
300
300
300
300
300
300
300
300
300
300
300
300
300
300
300
300
300
300
300
300
300
300
300
300
300
300
300
300
300
300
300
300
300
300
300
300
300
300
300
300
300
300
300
300
300
300
300
300
300
300
300
300
300
300
300
300
300
300
300
300
300
300
300
300
300
300
300
300
300
300
300
300
300
300
300
300
300
300
300
300
300
300
300
300
300
300
300
300
300
300
300
300
300
300
300
300
300
300
300
300
300
300
300
300
300
300
300
300
300
300
300
300
300
300
300
300
300
300
300
300
300
300
300
300
300
300
300
300
300
300
300
300
300
300
300
300
300
300
300
300
300
300
300
300
300
300
300
300
300
300
300
300
300
300
300
300
300
300
300
300
300
300
300
300
300
300
300
300
300
300
300
300
300
300
300
300
300
300
300
300
300
300
300
300
300
300
300
300
300
300
300
300
300
300
300
300
300
300
300
300
300
300
300
300
300
300
300
300
300
300
300
300
300
300
300
300
300
300
300
300
300
300
300
300
300
300
300
300
300
300
300
300
300
300
300
300
300
300
300
300
300
300
300
300
300
300
300
300
300
300
300
300
300
300
300
300
300
300
300
300
300
300
300
300
300
300
300
300
300
300
300
300.001
300.002
300.001
300.001
300.001
300.006
300.007
300.011
300.011
300.005
300
300
300
300.001
300.001
300.001
300
300
300
300
300
300
300
300
300
300
300
300
300
300
300
300
300
300
300
300
300
300
300
300
300
300
300
300
300
300
300
300
300
300
300
300
300
300
300
300
300
300
300
300
300
300
300
300
300
300
300
300
300
300
300
300
300
300
300
300
300
300
300
300
300
300
300
300
300
300
300
300
300
300
300
300
300
300
300
300
300
300
300
300
300
300
300
300
300
300
300
300
300
300
300
300
300
300
300
300
300
300
300
300
300
300
300
300
300
300
300
300
300
300
300
300
300
300
300
300
300
300
300
300
300
300
300
300
300
300
300
300
300
300
300
300
300
300
300
300
300
300
300
300
300
300
300
300
300
300
300
300
300
300
300
300
300
300
300
300
300
300
300
300
300
300
300
300
300
300
300
300
300
300
300
300
300
300
300
300
300
300
300
300
300
300
300
300
300
300
300
300
300
300
300
300
300
300
300
300
300
300
300
300
300
300
300
300
300
300
300
300
300
300
300
300
300
300
300
300
300
300
300
300
300
300
300
300
300
300
300
300.001
300.001
300.001
300
300.002
300.018
300.022
300.017
300.009
300.007
300.052
300.067
300.105
300.12
300.081
300.004
300.035
300.267
300.384
300.387
300.281
300.219
300.038
300.047
300.066
300.061
300.026
300.002
300.001
300.005
300.011
300.011
300.007
300.005
300.001
300.001
300.002
300.003
300.001
300
300
300
300
300
300
300
300
300
300
300
300
300
300
300
300
300
300
300
300
300
300
300
300
300
300
300
300
300
300
300
300
300
300
300
300
300
300
300
300
300
300
300
300
300
300
300
300
300
300
300
300
300
300
300
300
300
300
300
300
300
300
300
300
300
300
300
300
300
300
300
300
300
300
300
300
300
300
300
300
300
300
300
300
300
300
300
300
300
300
300
300
300
300
300
300
300
300
300
300
300
300
300
300
300
300
300
300
300
300
300
300
300
300
300
300
300
300
300
300
300
300
300
300
300
300
300
300
300
300
300
300
300
300
300
300
300
300
300
300
300
300
300
300
300
300
300
300
300
300
300
300
300
300
300
300
300
300
300
300
300
300
300
300
300
300
300
300
300
300
300
300
300
300
300
300
300
300
300
300
300
300
300
300
300
300
300
300
300
300
300
300
300
300
300
300
300
300
300
300
300
300
300
300
300
300
300
300
300
300
300
300
300
300
300
300
300
300
300
300
300
300
300
300
300
300
300
300
300
300
300
300
300
300
300
300
300
300
300
300
300
300
300
300
300
300
300
300.003
300.004
300.006
300.008
300.006
300
300.003
300.043
300.07
300.067
300.043
300.033
300.193
300.229
300.286
300.24
300.121
300.009
300.067
300.348
300.687
300.985
300.966
300.847
305.516
305.118
303.688
302.134
301.228
300.416
300.317
300.874
301.245
301.568
301.543
301.401
300.192
300.23
300.294
300.273
300.17
300.01
300.004
300.05
300.069
300.064
300.044
300.033
300.008
300.01
300.014
300.015
300.009
300.002
300
300
300
300
300
300
300
300
300
300
300
300
300
300
300
300
300
300
300
300
300
300
300
300
300
300
300
300
300
300
300
300
300
300
300
300
300
300
300
300
300
300
300
300
300
300
300
300
300
300
300
300
300
300
300
300
300
300
300
300
300
300
300
300
300
300
300
300
300
300
300
300
300
300
300
300
300
300
300
300
300
300
300
300
300
300
300
300
300
300
300
300
300
300
300
300
300
300
300
300
300
300
300
300
300
300
300
300
300
300
300
300
300
300
300
300
300
300
300
300
300
300
300
300
300
300
300
300
300
300
300
300
300
300
300
300
300
300
300
300
300
300
300
300
300
300
300
300
300
300
300
300
300
300
300
300
300
300
300
300
300
300
300
300
300
300
300
300
300
300
300
300
300
300
300
300
300
300
300
300
300
300
300
300
300
300
300
300
300
300
300
300
300
300
300
300
300
300
300
300
300
300
300
300
300
300
300
300
300
300
300
300
300
300
300
300
300
300
300
300
300
300
300
300
300
300
300
300
300
300
300
300
300
300
300
300
300
300
300
300
300
300
300
300
300
300
300
300
300
300
300
300
300
300
300
300
300
300
300
300
300
300
300
300
300
300.001
300.001
300.001
300.001
300
300.028
300.034
300.046
300.038
300.017
300
300.003
300.071
300.194
300.31
300.278
300.232
301.193
301.229
300.994
300.442
300.127
300.008
300.028
300.149
300.669
302.104
303.449
303.655
308.735
306.993
303.475
301.048
300.253
300.104
300.782
301.989
304.605
310.371
317.753
321.8
342.121
357.037
375.927
404.024
453.694
448.344
386.888
356.784
340.641
330.186
317.463
325.147
340.404
374.196
446.921
448.049
367.363
329.289
314.654
308.708
304.699
309.505
323.882
365.441
449.469
450.691
365.442
320.936
306.469
302.504
300.23
302.09
313.946
358.098
446.536
449.481
362.269
315.609
302.376
300.261
300.049
300.073
300.182
301.772
313.267
358.15
447.755
450.821
366.76
322.526
307.394
302.857
305.022
310.743
325.989
366.759
449.268
447.468
368.606
331.586
316.058
308.97
317.344
326.202
342.3
375.27
445.928
446.852
387.556
358.187
341.35
330.186
342.435
356.903
375.836
403.493
451.975
451.539
402.096
373.959
355.126
340.984
330.418
341.177
357.642
386.753
446.215
445.354
373.318
340.277
324.68
316.394
308.657
315.198
329.911
366.096
446.298
447.783
363.348
323.706
309.665
304.577
302.636
306.6
320.009
362.063
448.16
443.278
349.708
309.101
300.933
300.096
300.057
300.89
301.826
304.161
309.845
318.514
323.823
312.292
310.972
307.535
304.299
302.464
301.461
300.504
301.81
302.764
303.773
303.959
303.67
300.555
300.636
300.709
300.567
300.312
300.031
300.025
300.118
300.177
300.191
300.154
300.126
300.001
300.003
300.005
300.004
300.003
300.001
300
300
300
300
300
300
300
300
300
300
300
300
300
300
300
300
300
300
300
300
300
300
300
300
300
300
300
300
300
300
300
300
300
300
300
300
300
300
300
300
300
300
300
300
300
300
300
300
300
300
300
300
300
300
300
300
300
300
300
300
300
300
300
300
300
300
300
300
300
300
300
300
300
300
300
300
300
300
300
300
300
300
300
300
300
300
300
300
300
300
300
300
300
300
300
300
300
300
300
300
300
300
300
300
300
300
300
300
300
300
300
300
300
300
300
300
300
300
300
300
300
300
300
300
300
300
300
300
300
300
300
300
300
300
300
300
300
300
300
300
300
300
300
300
300
300
300
300
300
300
300
300
300
300
300
300
300
300
300
300
300
300
300
300
300
300
300
300
300
300
300
300
300
300
300
300
300
300
300
300
300
300
300
300
300
300
300
300
300
300
300
300
300
300
300
300
300
300
300
300
300
300
300
300
300
300
300
300
300
300
300
300
300
300
300
300
300
300
300
300
300
300
300
300
300
300
300
300
300
300
300
300
300
300
300
300
300
300
300
300
300
300
300
300
300
300
300
300
300
300
300
300
300
300
300
300
300
300
300
300
300
300
300
300
300
300
300
300
300
300
300
300
300
300
300
300
300
300
300
300
300
300
300
300
300
300
300
300
300
300
300
300
300
300
300
300
300
300.001
300.001
300
300.001
300.028
300.053
300.051
300.031
300.023
300.345
300.408
300.477
300.349
300.15
300.006
300.03
300.446
301.168
302.098
302.474
302.333
309.121
308.115
305.196
302.339
300.784
300.075
300.65
302.194
305.824
318.871
360.73
447.688
446.479
444.809
443.798
445.196
451.117
401.402
384.109
370.44
363.152
360.503
321.536
327.061
337.468
354.607
373.081
354.834
339.139
323.124
313.549
308.474
304.012
307.727
315.531
328.844
340.19
321.48
316.876
309.09
303.774
301.539
301.746
304.107
309.959
318.844
323.741
343.468
330.838
316.775
308.704
304.933
310.487
315.078
324.564
340.907
357.453
376.167
356.904
339.95
330.125
325.36
365.268
365.454
372.054
385.475
403.084
453.191
447.173
445.611
446.507
448.215
449.767
365.645
322.872
307.802
302.978
300.835
300.039
300.523
303.086
315.649
359.298
447.541
442.419
351.714
311.129
301.512
300.156
300.015
300.023
300.002
300.14
301.64
312.157
354.026
442.947
446.547
359.343
314.355
302.037
300.179
300.003
300.002
300.096
301.33
311.036
352.162
441.905
434.885
341.881
306.922
300.62
300.033
300.001
300.001
300.039
300.694
307.231
342.128
434.363
441.8
347.743
308.829
300.951
300.087
300.033
300.667
302.038
305.343
317.375
357.912
446.452
445.612
443.873
442.657
443.789
449.426
400.152
383.323
368.95
360.825
358.109
320.215
325.761
336.681
354.176
371.727
353.428
338.811
322.7
312.856
307.887
303.688
307.258
315.216
328.479
338.89
320.766
316.273
308.407
303.34
301.379
301.178
302.689
305.99
309.051
309.702
302.677
302.764
302.343
301.326
300.623
300.138
300.017
300.227
300.41
300.556
300.516
300.436
300.049
300.063
300.073
300.058
300.032
300.009
300
300
300
300
300
300
300
300
300
300
300
300
300
300
300
300
300
300
300
300
300
300
300
300
300
300
300
300
300
300
300
300
300
300
300
300
300
300
300
300
300
300
300
300
300
300
300
300
300
300
300
300
300
300
300
300
300
300
300
300
300
300
300
300
300
300
300
300
300
300
300
300
300
300
300
300
300
300
300
300
300
300
300
300
300
300
300
300
300
300
300
300
300
300
300
300
300
300
300
300
300
300
300
300
300
300
300
300
300
300
300
300
300
300
300
300
300
300
300
300
300
300
300
300
300
300
300
300
300
300
300
300
300
300
300
300
300
300
300
300
300
300
300
300
300
300
300
300
300
300
300
300
300
300
300
300
300
300
300
300
300
300
300
300
300
300
300
300
300
300
300
300
300
300
300
300
300
300
300
300
300
300
300
300
300
300
300
300
300
300
300
300
300
300
300
300
300
300
300
300
300
300
300
300
300
300
300
300
300
300
300
300
300
300
300
300
300
300
300
300
300
300
300
300
300
300
300
300
300
300
300
300
300
300
300
300
300
300
300
300
300
300
300
300
300
300
300
300
300
300
300
300
300
300
300
300
300
300
300
300
300
300
300
300
300
300
300
300
300
300
300
300
300
300
300
300
300
300
300
300
300
300
300
300
300
300
300
300
300
300
300
300
300
300
300
300
300
300
300
300
300
300
300
300
300
300
300
300
300
300
300
300
300
300
300
300
300
300
300
300
300
300
300
300
300
300.001
300
300
300
300
300.011
300.014
300.028
300.037
300.024
300.001
300.011
300.178
300.34
300.395
300.286
300.212
302.595
302.658
302.248
301.337
300.608
300.074
300.2
301.166
302.871
305.934
309.142
310.162
310.398
309.365
306.192
303.074
301.36
300.36
301.189
304.266
310.504
327.654
371.035
451.721
449.52
447.375
446.228
447.675
453.653
404.333
386.986
374.507
368.902
368.184
327.918
331.549
340.389
356.601
375.646
357.498
340.843
325.093
316.272
312.021
305.768
309.232
316.938
330.662
343.001
323.773
318.987
310.352
304.429
302.017
303.161
305.982
312.555
320.152
324.034
345.78
333.777
320.252
312.402
308.851
317.027
320.437
329.075
344.458
360.214
379.324
361.106
345.828
337.875
335.237
375.744
373.522
378.142
389.791
406.267
454.958
449.336
448.207
449.617
452.032
454.741
378.721
335.082
315.358
306.975
302.02
300.829
304.491
312.149
332.134
377.758
454.624
450.966
366.825
321.413
305.678
301.392
300.154
300.072
300.954
304.682
320.058
366.4
451.188
447.026
357.128
313.554
302.125
300.246
300.008
300.002
300.093
301.178
309.638
347.864
438.784
438.255
347.561
309.645
301.204
300.098
300.002
300.002
300.161
301.797
312.834
355.463
443.99
450.183
364.492
316.768
302.587
300.251
300.003
300.001
300.133
301.652
312.573
355.619
444.294
435.761
343.782
307.772
300.774
300.046
300.001
300.001
300.06
300.899
308.382
345.207
436.848
445.843
355.637
312.146
301.554
300.127
300.001
300.001
300.079
301.137
309.966
350.025
441.298
445.266
353.369
311.186
301.424
300.139
300.022
300.653
301.727
304.356
310.155
316.673
319.357
340.409
355.243
373.731
400.265
448.11
442.718
383.851
356.593
341.509
331.069
318.624
326.038
339.867
370.178
441.842
443.494
361.868
327.776
314.737
309.122
304.508
308.873
321.404
359.22
445.569
447.512
359.231
317.659
305.368
302.069
302.799
306.698
320.321
362.807
448.555
445.915
361.513
323.768
310.781
306.394
312.819
317.918
330.861
364.31
443.398
441.859
371.686
342.109
329.145
323.072
336.353
345.824
359.578
385.405
442.637
448.462
401.075
375.474
358.035
343.245
320.359
318.262
312.954
306.517
302.807
300.933
300.393
301.194
302.913
306.022
308.577
309.019
302.719
302.84
302.41
301.286
300.496
300.141
300.06
300.216
300.401
300.577
300.567
300.473
300.005
300.011
300.016
300.016
300.013
300.009
300
300
300
300
300
300
300
300
300
300
300
300
300
300
300
300
300
300
300
300
300
300
300
300
300
300
300
300
300
300
300
300
300
300
300
300
300
300
300
300
300
300
300
300
300
300
300
300
300
300
300
300
300
300
300
300
300
300
300
300
300
300
300
300
300
300
300
300
300
300
300
300
300
300
300
300
300
300
300
300
300
300
300
300
300
300
300
300
300
300
300
300
300
300
300
300
300
300
300
300
300
300
300
300
300
300
300
300
300
300
300
300
300
300
300
300
300
300
300
300
300
300
300
300
300
300
300
300
300
300
300
300
300
300
300
300
300
300
300
300
300
300
300
300
300
300
300
300
300
300
300
300
300
300
300
300
300
300
300
300
300
300
300
300
300
300
300
300
300
300
300
300
300
300
300
300
300
300
300
300
300
300
300
300
300
300
300
300
300
300
300
300
300
300
300
300
300
300
300
300
300
300
300
300
300
300
300
300
300
300
300
300
300
300
300
300
300
300
300
300
300
300
300
300
300
300
300
300
300
300
300
300
300
300
300
300
300
300
300
300
300
300
300
300
300
300
300
300
300
300
300
300
300
300
300
300
300
300
300
300
300
300
300
300
300
300
300
300
300
300
300
300
300
300
300
300
300
300
300
300
300
300
300
300
300
300
300
300
300
300
300
300
300
300
300
300
300
300
300
300
300
300
300
300
300
300
300
300
300
300
300
300
300
300
300
300
300
300
300
300
300
300
300
300
300
300
300
300
300
300
300
300
300
300
300
300
300
300
300
300
300
300
300
300
300
300
300
300
300
300
300
300
300
300
300
300
300
300
300
300
300
300
300
300
300
300
300.004
300.006
300.011
300.016
300.014
300.001
300.014
300.162
300.264
300.256
300.154
300.116
302.154
302.333
302.087
301.324
300.667
300.115
300.156
300.725
301.303
301.838
301.778
301.507
309.68
309.026
306.52
303.586
301.795
300.677
300.658
301.816
303.265
305.208
306.28
306.176
317.101
315.266
310.739
305.916
303.509
302.635
302.166
303.376
305.946
310.532
314.698
316.295
328.164
323.461
316.303
310.332
307.028
315.064
317.88
325.067
337.475
349.114
364.43
348.939
335.19
327.92
325.371
346.204
345.874
352.542
365.954
383.022
411.196
396.274
387.382
385.12
387.363
456.694
453.138
451.363
452.13
457.269
457.911
453.362
453.115
455.221
458.292
391.929
387.057
388.884
397.063
410.766
383.882
368.368
356.731
351.74
351.321
329.337
330.767
337.322
349.934
363.919
349.282
338.31
326.917
320.572
317.739
308.571
311.709
317.706
324.602
328.588
315.623
314.746
312.057
308.759
306.22
303.765
307.092
316.7
329.155
353.111
396.232
460.941
462.037
395.565
348.439
322.897
310.937
302.98
302.973
310.357
321.983
347.027
394.003
461.249
459.11
387.793
341.441
318.257
307.925
301.751
301.242
308.071
318.977
343.35
390.733
460.502
455.633
377.968
331.05
310.983
303.726
300.537
300.572
304.053
311.681
332.274
379.282
456.027
451.511
366.498
320.116
304.705
300.962
300.074
300.006
300.224
302.025
313.24
356.464
446.605
446.197
355.648
312.721
301.845
300.187
300.004
300.002
300.093
301.14
309.223
346.201
436.85
443.132
354.452
312.463
301.738
300.156
300.002
300.004
300.273
302.712
317.15
364.948
450.194
446.33
358.377
313.79
301.919
300.166
300.002
300.001
300.066
300.991
309.016
347.14
438.473
439.552
348.281
309.477
301.088
300.078
300.001
300.001
300.157
301.796
313.272
358.08
447.288
453.248
368.215
318.198
302.9
300.304
300.002
300.003
300.277
302.712
317.393
366.7
452.47
447.044
358.92
313.867
301.919
300.167
300.002
300.027
300.244
302.074
313.965
358.658
447.24
446.655
357.742
313.749
302.101
300.269
300.025
300.904
303.017
306.791
312.824
317.128
318.425
341.395
356.251
374.193
400.533
448.835
443.154
383.815
356.875
342.787
333.226
321.912
327.816
340.531
370.455
441.948
443.492
362.642
328.614
316.239
311.81
306.227
309.958
322.294
360.164
445.613
447.957
360.71
318.73
306.013
302.591
303.027
306.853
319.765
360.266
446.573
444.027
359.259
323.072
310.688
306.385
312.12
317.325
329.796
362.13
441.608
440.274
369.717
340.757
328.037
321.36
334.204
344.447
358.316
383.831
441.357
447.52
399.741
373.901
355.845
340.374
317.87
316.38
312.291
306.706
303.069
300.974
300.275
301.293
302.877
304.92
305.613
305.306
302.873
302.899
302.271
301.045
300.384
300.095
300.096
300.358
300.672
300.934
300.897
300.767
300.082
300.104
300.119
300.102
300.073
300.037
300
300
300
300
300
300
300
300
300
300
300
300.001
300
300
300
300
300
300
300
300
300
300
300
300
300
300
300
300
300
300
300
300
300
300
300
300
300
300
300
300
300
300
300
300
300
300
300
300
300
300
300
300
300
300
300
300
300
300
300
300
300
300
300
300
300
300
300
300
300
300
300
300
300
300
300
300
300
300
300
300
300
300
300
300
300
300
300
300
300
300
300
300
300
300
300
300
300
300
300
300
300
300
300
300
300
300
300
300
300
300
300
300
300
300
300
300
300
300
300
300
300
300
300
300
300
300
300
300
300
300
300
300
300
300
300
300
300
300
300
300
300
300
300
300
300
300
300
300
300
300
300
300
300
300
300
300
300
300
300
300
300
300
300
300
300
300
300
300
300
300
300
300
300
300
300
300
300
300
300
300
300
300
300
300
300
300
300
300
300
300
300
300
300
300
300
300
300
300
300
300
300
300
300
300
300
300
300
300
300
300
300
300
300
300
300
300
300
300
300
300
300
300
300
300
300
300
300
300
300
300
300
300
300
300
300
300
300
300
300
300
300
300
300
300
300
300
300
300
300
300
300
300
300
300
300
300
300
300
300
300
300
300
300
300
300
300
300
300
300
300
300
300
300
300
300
300
300
300
300
300
300
300
300
300
300
300
300
300
300
300
300
300
300
300
300
300
300
300
300
300
300
300
300
300
300
300
300
300
300
300
300
300
300
300
300
300
300
300
300
300
300
300
300
300
300
300
300
300
300
300
300
300
300
300
300
300
300
300
300
300
300
300
300
300
300
300
300
300
300
300
300
300
300
300
300
300
300
300
300
300
300
300
300
300
300
300
300
300
300
300
300
300
300
300
300
300
300
300
300
300
300
300
300
300
300
300
300
300
300
300
300
300
300
300
300
300
300.001
300.007
300.008
300.005
300.002
300.001
300.056
300.069
300.116
300.15
300.112
300.012
300.009
300.067
300.076
300.053
300.029
300.023
300.83
300.961
301.097
300.883
300.545
300.116
300.082
300.342
300.48
300.494
300.367
300.294
302.541
302.716
302.67
301.955
301.206
300.438
300.928
302.326
303.886
305.977
307.18
307.287
302.695
302.903
302.937
302.199
301.421
300.511
301.855
304.22
305.73
306.942
306.955
306.445
308.6
308.738
307.961
306.351
305.076
302.749
304.402
307.097
309.16
312.698
316.697
318.168
331.76
325.238
316.842
311.717
309.446
319.026
320.782
326.722
338.184
350.608
365.9
350.484
338.178
332.388
330.81
352.744
351.172
356.432
368.241
384.684
412.937
398.964
391.461
390.295
393.223
458.866
455.283
453.379
453.889
458.699
460.05
413.388
384.593
364.708
349.587
338.877
351.527
370.29
400.79
455.656
455.758
393.646
358.624
338.721
326.814
321.926
333.672
354.534
392.562
457.408
460.295
395.132
353.552
330.802
318.689
317.615
330.287
354.833
398.756
462.395
462.731
396.1
347.555
321.89
310.601
303.329
303.935
312.624
325.007
350.626
397.181
462.366
463.84
398.538
350.045
323.507
311.191
302.624
301.739
310.328
322.561
349.083
397.114
462.698
463.16
396.222
346.967
320.497
308.791
301.437
301.515
309.79
322.205
349.389
398.273
463.685
461.722
392.821
345.327
320.307
308.802
301.321
301.311
308.847
320.327
345.211
392.399
461.249
455.923
378.256
331.105
310.894
303.64
300.489
300.067
300.891
304.455
319.429
365.286
450.809
450.732
364.684
318.712
304.062
300.751
300.051
300.004
300.169
301.737
312.305
354.701
445.465
436.162
345.452
308.99
301.108
300.091
300.002
300.002
300.163
301.765
312.438
353.955
442.407
450.332
365.218
317.335
302.772
300.284
300.005
300.002
300.196
302.119
314.505
359.416
446.637
440.175
349.267
309.821
301.131
300.081
300.002
300.002
300.098
301.258
310.3
350.066
440.578
448.296
359.547
313.934
301.937
300.175
300.002
300.003
300.341
303.104
318.76
368.748
453.266
445.669
358.477
314.247
302.132
300.212
300.002
300.002
300.202
302.071
314.028
358.117
445.564
446.396
358.818
314.175
302.072
300.199
300.002
300.002
300.15
301.725
312.615
355.253
443.804
441.108
351.164
310.979
301.443
300.124
300.002
300.025
300.248
301.859
312.309
353.938
443.988
447.483
361.541
319.017
305.091
301.361
300.197
301.507
303.603
307.472
313.516
318.449
320.497
343.284
358.139
376.176
402.443
450.168
444.192
385.754
358.449
343.635
333.887
321.915
328.987
343.023
373.182
442.655
443.985
366.433
332.597
318.468
312.267
307.655
313.403
327.824
364.696
445.927
448.18
365.428
325.156
310.033
304.547
307.104
314.658
332.479
373.541
451.506
448.74
369.828
331.874
315.809
308.868
313.322
320.341
335.647
370.245
446.232
445.058
375.386
343.977
328.958
321.483
335.444
344.921
360.106
387.734
446.257
452.361
403.864
377.025
358.862
344.373
322.555
319.288
313.641
307.841
304.094
302.237
300.891
302.372
304.336
306.709
307.881
307.808
306.771
306.846
305.943
303.678
301.853
300.518
300.202
300.723
301.305
301.773
301.624
301.368
301.258
301.408
301.404
300.938
300.463
300.111
300.055
300.212
300.453
300.731
300.738
300.635
300.059
300.089
300.126
300.128
300.104
300.052
300.015
300.013
300.011
300.006
300.001
300
300
300
300
300
300
300
300
300
300
300
300
300
300
300
300
300
300
300
300
300
300
300
300
300
300
300
300
300
300
300
300
300
300
300
300
300
300
300
300
300
300
300
300
300
300
300
300
300
300
300
300
300
300
300
300
300
300
300
300
300
300
300
300
300
300
300
300
300
300
300
300
300
300
300
300
300
300
300
300
300
300
300
300
300
300
300
300
300
300
300
300
300
300
300
300
300
300
300
300
300
300
300
300
300
300
300
300
300
300
300
300
300
300
300
300
300
300
300
300
300
300
300
300
300
300
300
300
300
300
300
300
300
300
300
300
300
300
300
300
300
300
300
300
300
300
300
300
300
300
300
300
300
300
300
300
300
300
300
300
300
300
300
300
300
300
300
300
300
300
300
300
300
300
300
300
300
300
300
300
300
300
300
300
300
300
300
300
300
300
300
300
300
300
300
300
300
300
300
300
300
300
300
300
300
300
300
300
300
300
300
300
300
300
300
300
300
300
300
300
300
300
300
300
300
300
300
300
300
300
300
300
300
300
300
300
300
300
300
300
300
300
300
300
300
300
300
300
300
300
300
300
300
300
300
300
300
300
300
300
300
300
300
300
300
300
300
300
300
300
300
300
300
300
300
300
300
300
300
300
300
300
300
300
300
300
300
300
300
300
300
300
300
300
300
300
300
300
300
300
300
300
300
300
300
300
300
300
300
300
300
300
300
300
300
300
300
300
300
300
300
300
300
300
300
300
300
300
300
300
300
300
300
300
300
300
300
300
300
300
300
300
300
300
300
300
300
300
300
300
300
300
300
300
300
300
300
300
300
300
300
300
300
300
300
300
300
300
300
300
300
300
300
300
300
300
300
300
300
300
300
300
300
300
300
300
300
300
300
300
300
300
300
300
300
300
300
300
300
300
300
300
300
300
300
300
300
300
300
300
300
300
300
300
300
300
300
300
300
300
300
300
300
300
300
300
300
300
300.004
300.004
300.002
300.001
300.001
300
300
300.001
300.002
300.002
300
300.006
300.035
300.036
300.023
300.012
300.01
300.004
300.005
300.01
300.016
300.018
300.003
300.05
300.181
300.225
300.201
300.133
300.106
300.811
300.977
301.188
301.061
300.757
300.281
300.17
300.427
300.521
300.483
300.329
300.251
300.843
301.022
301.288
301.173
300.849
300.297
301.073
302.529
303.192
303.334
302.757
302.399
302.83
303.266
303.757
303.523
302.994
301.558
302.045
303.051
303.56
303.806
303.251
302.738
308.123
308.169
307.323
305.745
304.506
302.837
304.192
306.188
308.289
311.651
315.527
317.175
329.802
323.225
315.412
310.619
308.644
307.662
307.883
317.128
329.438
353.593
397.303
461.674
458.496
455.467
453.38
453.716
458.351
413.173
399.51
391.383
389.473
391.466
350.675
351.57
356.859
368.915
384.728
365.98
351.55
338.955
332.318
329.18
318.005
320.952
327.414
339.084
350.445
330.757
325.671
317.601
311.879
308.939
306.779
308.746
312.327
315.828
316.814
309.622
309.505
308.087
305.7
303.853
301.906
303.653
305.076
307.995
312.762
317.37
319.234
319.212
316.93
311.911
307.486
304.926
304.072
305.917
314.694
325.982
348.254
390.809
459.102
455.873
453.044
451.346
452.194
457.425
411.206
395.987
386.452
383.516
384.903
344.898
345.846
352.029
365.555
382.999
365.062
349.285
335.294
327.972
325.062
315.161
318.063
325.356
338.276
350.298
328.19
323.512
315.573
309.678
306.641
308.836
311.357
317.614
325.135
329.967
351.598
366.903
386.113
413.476
459.049
454.663
399.213
368.891
350.764
338.582
327.947
338.947
357.647
391.439
454.048
456.177
389.584
351.498
331.277
320.418
318.133
329.345
351.051
392.09
458.63
461.837
396.348
352.275
328.265
316.153
307.389
304.172
312.403
324.46
349.992
396.821
462.351
462.415
395.616
347.511
321.957
310.594
303.106
301.983
309.865
321.304
347.801
396.939
462.995
463.081
396.278
346.018
319.776
309.038
302.217
302.128
308.935
319.707
346.449
396.589
462.974
464.293
399.342
350.548
323.662
311.206
302.445
301.57
310.281
322.883
350.101
398.636
463.535
464.142
399.198
350.083
322.568
309.944
301.476
301.312
309.192
321.416
348.6
397.934
463.771
463.981
397.739
348.049
320.959
308.896
301.262
301.22
308.397
319.53
343.98
391.08
460.745
455.266
376.849
330.163
310.474
303.479
300.461
300.451
303.405
310.276
329.742
376.183
454.671
450.247
363.624
317.963
303.763
300.666
300.043
300.004
300.159
301.669
312.038
354.152
445.122
435.788
345.3
309.027
301.132
300.096
300.003
300.003
300.18
301.861
312.753
354.411
442.528
450.757
366.255
318.063
303.002
300.325
300.006
300.003
300.229
302.335
315.315
360.831
447.322
441.441
351.386
310.806
301.34
300.106
300.003
300.002
300.122
301.446
311.168
351.95
441.745
449.035
361.09
314.834
302.171
300.21
300.002
300.004
300.387
303.339
319.448
369.554
453.485
445.771
359.032
314.721
302.286
300.239
300.003
300.006
300.186
301.764
311.932
352.034
440.56
440.632
351.121
311.233
301.559
300.149
300.002
300.002
300.146
301.56
311.345
351.646
441.212
442.332
352.844
311.768
301.638
300.155
300.002
300.112
301.081
304.644
318.726
362.131
447.95
447.133
360.516
317.858
304.371
301.015
300.109
300.454
302.997
309.103
326.846
371.375
452.093
451.252
370.704
327.411
309.955
303.62
300.708
301.841
307.62
316.979
338.041
382.108
455.937
455.383
381.534
339.703
319.702
310.297
312.437
321.262
339.551
378.297
452.297
449.955
377.523
341.819
324.652
316.027
324.744
333.616
349.912
381.744
448.274
449.47
392.442
364.119
347.942
337.382
348.798
363.437
381.785
408.291
454.876
324.767
321.621
315.09
309.32
305.339
303.623
301.564
303.073
305.197
307.745
309.465
309.635
301.73
301.95
302.121