/*--------------------------------*- C++ -*----------------------------------*\
| =========                 |                                                 |
| \\      /  F ield         | OpenFOAM: The Open Source CFD Toolbox           |
|  \\    /   O peration     | Version:  2212                                  |
|   \\  /    A nd           | Website:  www.openfoam.com                      |
|    \\/     M anipulation  |                                                 |
\*---------------------------------------------------------------------------*/
FoamFile
{
    version     2.0;
    format      ascii;
    arch        "LSB;label=32;scalar=64";
    class       volScalarField;
    location    "350";
    object      p;
}
// * * * * * * * * * * * * * * * * * * * * * * * * * * * * * * * * * * * * * //

dimensions      [0 2 -2 0 0 0 0];

internalField   nonuniform List<scalar> 
248319
(
0
0.0192834
0.0402732
0.049915
0.0579548
0.0646575
0.0702512
0.109364
0.103298
0.0960245
0.0873021
0.0768428
0.0510532
0.0498414
0.0761441
0.0872776
0.0965739
0.104332
0.110803
0.081265
0.0763952
0.0706068
0.0636789
0.0553529
0.0331004
0.0137257
0.0280126
0.0342252
0.039525
0.0440896
0.0480633
0.0626252
0.0577874
0.0519898
0.045051
0.0367425
0.0196838
-0.0539488
-0.0471926
-0.043448
-0.0403243
-0.0377037
-0.0355277
-0.0212267
-0.0246944
-0.028853
-0.0338307
-0.0397962
-0.0507581
-0.0555441
-0.0402164
-0.0334741
-0.027859
-0.0231786
-0.0192619
0.0634686
0.0574291
0.0501806
0.0414895
0.0310681
0.000544155
0.0309104
0.0593137
0.0692862
0.0776007
0.0845285
0.0903077
0.100137
0.0944897
0.0877146
0.0795875
0.0698437
0.0359024
0.0499517
0.0749749
0.0847381
0.0928754
0.0996594
0.105314
0.109529
0.103006
0.0951849
0.0858083
0.0745687
0.047315
0.0190803
0.0397527
0.0463798
0.0519061
0.0565889
0.0606377
-0.0356255
-0.0383561
-0.0410865
-0.043815
-0.0465455
-0.0535701
-0.0514968
-0.043848
-0.0414591
-0.0392185
-0.0370804
-0.0350158
-0.140378
-0.140788
-0.141178
-0.141547
-0.141887
-0.145263
-0.144828
-0.141952
-0.140972
-0.140158
-0.139477
-0.138904
-0.132513
-0.13379
-0.135336
-0.137174
-0.139384
-0.144443
-0.145906
-0.139377
-0.136703
-0.134475
-0.132605
-0.131064
-0.133982
-0.13562
-0.137599
-0.139959
-0.142803
-0.15019
-0.0695755
-0.0525724
-0.0457518
-0.040066
-0.0353329
-0.0313705
0.0473196
0.0406993
0.0327585
0.0232275
0.0118009
-0.0194609
-0.0091599
0.031541
0.0452775
0.0567309
0.0662818
0.0742443
0.0901753
0.08337
0.0752091
0.0654175
0.0536743
0.010413
0.00965186
0.0523111
0.0641491
0.0740159
0.0822392
0.0890954
0.097877
0.0922958
0.0855989
0.0775619
0.0679198
0.0344772
0.0489416
0.0735196
0.0833181
0.0914823
0.0982855
0.103953
0.109475
0.10278
0.0947532
0.0851303
0.0735935
0.0456343
0.0147858
0.0354124
0.042198
0.047911
0.0527927
0.0570391
-0.0392364
-0.0419527
-0.0446707
-0.0473892
-0.0501103
-0.0586946
-0.147627
-0.143318
-0.142599
-0.141881
-0.141163
-0.140444
-0.139439
-0.140143
-0.140842
-0.141542
-0.142241
-0.14619
-0.244008
-0.242359
-0.242285
-0.242211
-0.242138
-0.242064
-0.242964
-0.242952
-0.242919
-0.242858
-0.242762
-0.243761
-0.243303
-0.2424
-0.242274
-0.242168
-0.242083
-0.242016
-0.238682
-0.239004
-0.239385
-0.23985
-0.240402
-0.242615
-0.24287
-0.239817
-0.239096
-0.238493
-0.237994
-0.237568
-0.238123
-0.238592
-0.239156
-0.239824
-0.240625
-0.244232
-0.245658
-0.241497
-0.240519
-0.239711
-0.239026
-0.238468
-0.136207
-0.138051
-0.140269
-0.142925
-0.146113
-0.154313
-0.0773823
-0.0596654
-0.0525112
-0.0465457
-0.0415806
-0.0374342
0.0342297
0.0274523
0.0193183
0.00955393
-0.00214806
-0.0328349
-0.0252801
0.012636
0.0266676
0.0383668
0.0481204
0.056248
0.0568196
0.0485519
0.0386288
0.0267249
0.012444
-0.0247356
-0.00913661
0.0306819
0.0447035
0.05639
0.0661323
0.0742534
0.0739224
0.0657207
0.0558796
0.0440737
0.0299042
-0.00976743
0.00871792
0.0514048
0.0634045
0.0734019
0.0817343
0.0886791
0.0975711
0.0919117
0.0851225
0.0769739
0.0671974
0.0335512
0.0480698
0.0729827
0.0829111
0.0911842
0.0980794
0.103823
0.109423
0.102617
0.0944542
0.0846687
0.0729358
0.0445308
0.0132893
0.0339974
0.0409703
0.0468571
0.0518973
0.0562842
-0.0407192
-0.0434425
-0.0461654
-0.0488883
-0.0516129
-0.0603996
-0.14869
-0.144133
-0.143457
-0.142781
-0.142106
-0.14143
-0.242723
-0.242799
-0.242876
-0.242953
-0.24303
-0.24512
-0.244498
-0.242473
-0.2424
-0.242328
-0.242255
-0.242182
-0.343437
-0.343435
-0.343434
-0.343433
-0.34343
-0.344212
-0.343974
-0.343407
-0.343428
-0.343448
-0.34347
-0.34349
-0.344219
-0.344166
-0.344102
-0.344025
-0.34393
-0.344021
-0.343701
-0.343609
-0.343663
-0.343714
-0.343754
-0.343789
-0.34197
-0.342017
-0.34207
-0.342138
-0.34222
-0.343047
-0.343002
-0.341745
-0.341616
-0.341503
-0.341415
-0.341348
-0.341486
-0.341568
-0.341678
-0.341812
-0.341964
-0.34349
-0.343962
-0.342143
-0.341955
-0.34179
-0.341659
-0.341546
-0.340745
-0.34094
-0.341156
-0.341427
-0.341747
-0.344
-0.246039
-0.241068
-0.239689
-0.238543
-0.23758
-0.236794
-0.134486
-0.136804
-0.139592
-0.142932
-0.146935
-0.156199
-0.0818115
-0.0632879
-0.0553215
-0.0486778
-0.0431558
-0.0385335
0.0239959
0.0175168
0.00973944
0.000407407
-0.010778
-0.040488
-0.0341663
0.00128607
0.0136015
0.0238708
0.0324313
0.0395649
0.0405651
0.0333936
0.0247883
0.0144641
0.00207951
-0.0330939
-0.0329155
0.00218854
0.0145603
0.0248719
0.033467
0.0406281
0.0567178
0.0484143
0.03845
0.0264972
0.0121544
-0.0248831
-0.0250558
0.0120393
0.0263826
0.0383344
0.048295
0.0565944
0.0737253
0.0655122
0.0556562
0.0438268
0.0296347
-0.0101201
0.00826692
0.0511078
0.0631444
0.0731696
0.0815283
0.0884914
0.0974443
0.0917655
0.0849541
0.0767782
0.0669641
0.0331408
0.047684
0.072779
0.0827492
0.0910555
0.0979784
0.103745
0.109378
0.102527
0.0943092
0.0844569
0.0726456
0.0440609
0.0127338
0.0335579
0.0405994
0.0465455
0.0516378
0.0560662
-0.0412033
-0.0439225
-0.0466408
-0.0493598
-0.0520804
-0.0610085
-0.149299
-0.144734
-0.144055
-0.143374
-0.142694
-0.142015
-0.243188
-0.243264
-0.243342
-0.243419
-0.243496
-0.245575
-0.344876
-0.344049
-0.344049
-0.344049
-0.344048
-0.344048
-0.343724
-0.343725
-0.343725
-0.343725
-0.343726
-0.344562
-0.44435
-0.444023
-0.444022
-0.444021
-0.444021
-0.444021
-0.443853
-0.443852
-0.443852
-0.443851
-0.44385
-0.444138
-0.444041
-0.443883
-0.443896
-0.44391
-0.443924
-0.443936
-0.444486
-0.444456
-0.444418
-0.444371
-0.444316
-0.44417
-0.444037
-0.444174
-0.444233
-0.444287
-0.444332
-0.444366
-0.443432
-0.443432
-0.443426
-0.44342
-0.443415
-0.443673
-0.443752
-0.443305
-0.443302
-0.443287
-0.443284
-0.443268
-0.443624
-0.443646
-0.443643
-0.443664
-0.44368
-0.444192
-0.444754
-0.444212
-0.444177
-0.444161
-0.444151
-0.444129
-0.444411
-0.444436
-0.444472
-0.444508
-0.444564
-0.445188
-0.445386
-0.444563
-0.444447
-0.444344
-0.444269
-0.444205
-0.338864
-0.339231
-0.339652
-0.340166
-0.340781
-0.343675
-0.245823
-0.239631
-0.23745
-0.23563
-0.234103
-0.232843
-0.124278
-0.127531
-0.131445
-0.13614
-0.141778
-0.154676
-0.0824806
-0.0606038
-0.0513289
-0.0435939
-0.0371625
-0.0317767
0.0162009
0.00999712
0.00255452
-0.00637524
-0.0170859
-0.0445782
-0.0406966
-0.0115036
-0.00119549
0.007401
0.014563
0.0205366
0.0212622
0.0153421
0.00824098
-0.000281925
-0.010504
-0.0395438
-0.0393236
-0.0103388
-0.000139168
0.00836288
0.0154467
0.0213531
0.0213255
0.015422
0.00834645
-0.000148638
-0.0103463
-0.0393607
-0.0329731
0.00217641
0.014538
0.0248406
0.0334233
0.0405758
0.0405237
0.0333719
0.024792
0.0144913
0.00213061
-0.0330724
-0.0251917
0.0119634
0.0263054
0.0382567
0.0482149
0.0565121
0.0736245
0.065409
0.0555503
0.0437178
0.0295226
-0.0103055
0.0080696
0.0510002
0.0630417
0.0730737
0.0814374
0.0884052
0.0973876
0.0917062
0.0848886
0.0767075
0.066889
0.0329887
0.04755
0.072715
0.0826954
0.0910104
0.0979408
0.103714
0.109366
0.102498
0.0942614
0.0843853
0.0725469
0.0439152
0.0125766
0.0335069
0.0405886
0.0465687
0.0516867
0.0561324
-0.0413599
-0.0440885
-0.0468163
-0.049544
-0.0522731
-0.0612285
-0.149562
-0.145005
-0.144323
-0.143642
-0.142959
-0.142275
-0.243464
-0.243541
-0.243619
-0.243695
-0.243773
-0.245832
-0.345098
-0.344294
-0.344294
-0.344293
-0.344293
-0.344293
-0.444468
-0.444468
-0.444468
-0.444468
-0.444469
-0.444772
-0.444578
-0.444257
-0.444256
-0.444256
-0.444255
-0.444255
-0.543833
-0.543833
-0.543833
-0.543834
-0.543834
-0.543971
-0.543779
-0.543636
-0.543636
-0.543635
-0.543635
-0.543635
-0.543509
-0.543509
-0.543511
-0.54351
-0.543509
-0.543633
-0.543593
-0.543544
-0.543549
-0.543556
-0.543562
-0.543568
-0.543943
-0.543927
-0.543909
-0.543884
-0.543856
-0.543724
-0.543742
-0.543885
-0.543925
-0.543951
-0.543971
-0.544002
-0.543664
-0.543648
-0.543658
-0.543644
-0.543637
-0.543682
-0.543999
-0.543907
-0.543901
-0.543917
-0.543898
-0.543906
-0.544643
-0.544635
-0.544654
-0.544644
-0.544649
-0.544685
-0.545678
-0.545756
-0.545756
-0.545759
-0.545748
-0.545752
-0.547077
-0.547081
-0.547087
-0.547088
-0.547095
-0.546876
-0.548132
-0.548469
-0.548443
-0.548437
-0.548417
-0.548407
-0.549304
-0.549328
-0.549369
-0.549403
-0.549453
-0.54909
-0.44533
-0.44413
-0.443855
-0.44363
-0.443445
-0.443287
-0.336051
-0.336709
-0.337481
-0.338415
-0.339542
-0.343303
-0.246645
-0.238944
-0.235629
-0.232861
-0.230546
-0.228625
-0.121728
-0.125767
-0.130633
-0.13647
-0.143474
-0.159694
-0.109567
-0.0814906
-0.0711735
-0.0625675
-0.0553951
-0.0494125
-0.014484
-0.0204062
-0.0274996
-0.0360164
-0.0462294
-0.0736239
-0.0681603
-0.0358107
-0.0257594
-0.0173813
-0.0103928
-0.00456409
-0.00459612
-0.0104146
-0.0173886
-0.0257559
-0.035801
-0.0676273
-0.0675469
-0.0358206
-0.0257751
-0.0174047
-0.0104292
-0.00461449
-0.00466507
-0.010478
-0.0174556
-0.0258227
-0.0358663
-0.0676187
-0.0677115
-0.0359247
-0.0258754
-0.0175027
-0.0105251
-0.00470934
0.0212858
0.0153824
0.00830455
-0.000192763
-0.0103928
-0.0394419
-0.0395052
-0.0104327
-0.000231404
0.00827015
0.015353
0.0212562
0.0404921
0.0333378
0.0247537
0.0144522
0.00208962
-0.0331434
-0.0252703
0.0119196
0.0262603
0.0382109
0.0481697
0.0564689
0.0735747
0.0653593
0.0555008
0.0436704
0.0294764
-0.0103901
0.00799676
0.050962
0.0630025
0.0730361
0.0814001
0.0883675
0.0973664
0.0916837
0.084865
0.0766843
0.06687
0.0329477
0.0475186
0.0727
0.08268
0.0909959
0.0979265
0.103702
0.109357
0.102487
0.0942472
0.0843673
0.0725261
0.0438835
0.0125441
0.0334993
0.0405851
0.0465673
0.0516883
0.0561353
-0.0413894
-0.0441208
-0.0468496
-0.0495781
-0.0523093
-0.0612723
-0.149648
-0.145099
-0.144416
-0.143733
-0.143051
-0.142368
-0.243596
-0.243673
-0.24375
-0.243827
-0.243905
-0.245949
-0.345232
-0.344441
-0.344441
-0.34444
-0.34444
-0.34444
-0.444636
-0.444636
-0.444636
-0.444637
-0.444637
-0.444927
-0.54439
-0.544284
-0.544283
-0.544282
-0.544282
-0.544282
-0.544054
-0.544054
-0.544054
-0.544055
-0.544055
-0.544176
-0.643288
-0.643247
-0.643247
-0.643246
-0.643246
-0.643246
-0.64295
-0.64295
-0.642951
-0.642951
-0.642952
-0.643011
-0.642804
-0.642734
-0.642733
-0.642733
-0.642732
-0.642732
-0.642602
-0.642602
-0.642603
-0.642603
-0.642604
-0.64267
-0.642641
-0.64261
-0.642611
-0.642612
-0.642614
-0.642617
-0.64285
-0.642843
-0.642836
-0.642828
-0.642816
-0.642743
-0.642856
-0.642955
-0.642964
-0.642977
-0.642997
-0.642997
-0.643041
-0.643049
-0.643038
-0.64304
-0.643038
-0.643011
-0.643531
-0.643584
-0.64359
-0.643586
-0.643586
-0.643586
-0.644656
-0.644661
-0.644652
-0.644664
-0.644654
-0.644479
-0.645914
-0.646298
-0.646301
-0.646289
-0.646298
-0.646293
-0.648502
-0.648503
-0.648509
-0.648512
-0.648509
-0.64786
-0.650225
-0.65117
-0.651173
-0.651168
-0.65116
-0.651164
-0.653663
-0.653664
-0.653672
-0.653677
-0.653681
-0.652527
-0.653245
-0.654558
-0.654532
-0.654524
-0.654501
-0.654498
-0.548959
-0.549031
-0.549111
-0.549204
-0.549319
-0.549091
-0.445059
-0.443217
-0.442647
-0.44217
-0.441773
-0.44145
-0.332398
-0.333551
-0.334902
-0.33654
-0.338507
-0.343572
-0.247289
-0.235363
-0.230322
-0.226119
-0.222599
-0.219693
-0.125677
-0.130335
-0.13592
-0.142622
-0.150659
-0.170128
-0.126764
-0.0995761
-0.0890694
-0.0803092
-0.0730066
-0.0669205
-0.0553514
-0.0619193
-0.0698085
-0.0792666
-0.0906152
-0.121098
-0.102527
-0.066477
-0.0549347
-0.0453095
-0.0372878
-0.0305979
-0.0307559
-0.0374084
-0.0453911
-0.0549674
-0.0664569
-0.101792
-0.101682
-0.0665612
-0.0550714
-0.0454932
-0.03751
-0.0308583
-0.0309389
-0.0375914
-0.0455759
-0.055154
-0.0666477
-0.10174
-0.101832
-0.0667111
-0.0552121
-0.0456337
-0.0376464
-0.0309914
-0.0310227
-0.0376776
-0.0456673
-0.0552507
-0.0667551
-0.101902
-0.0677778
-0.0359672
-0.0259129
-0.0175352
-0.0105554
-0.00473647
-0.004747
-0.0105693
-0.0175512
-0.0259342
-0.0359887
-0.0678169
-0.0395413
-0.0104533
-0.000249486
0.00825013
0.0153378
0.0212403
0.0404756
0.0333193
0.0247339
0.0144304
0.00206482
-0.0331856
-0.0253117
0.0118951
0.0262377
0.0381892
0.0481498
0.0564469
0.0735541
0.0653391
0.0554807
0.0436505
0.0294569
-0.0104242
0.00797638
0.0509507
0.0629893
0.0730226
0.0813864
0.0883517
0.0973588
0.0916759
0.0848598
0.0766807
0.0668656
0.0329444
0.0475197
0.0726966
0.0826774
0.0909939
0.0979227
0.103697
0.109354
0.102484
0.0942437
0.0843634
0.0725216
0.0438921
0.012566
0.0335328
0.040625
0.0466108
0.0517332
0.056182
-0.0413766
-0.0441061
-0.0468346
-0.0495655
-0.0522976
-0.0612611
-0.149661
-0.145119
-0.144436
-0.143751
-0.143068
-0.142386
-0.243647
-0.243723
-0.243801
-0.24388
-0.243957
-0.245992
-0.345309
-0.344527
-0.344526
-0.344526
-0.344525
-0.344525
-0.444774
-0.444774
-0.444775
-0.444775
-0.444776
-0.445055
-0.544619
-0.544529
-0.544529
-0.544528
-0.544527
-0.544527
-0.644106
-0.644106
-0.644107
-0.644108
-0.644109
-0.644085
-0.643645
-0.643632
-0.643631
-0.64363
-0.64363
-0.64363
-0.742952
-0.742953
-0.742954
-0.742955
-0.742956
-0.742887
-0.742252
-0.74227
-0.742268
-0.742268
-0.742267
-0.742267
-0.741793
-0.741793
-0.741793
-0.741794
-0.741795
-0.741812
-0.741528
-0.741492
-0.741491
-0.74149
-0.74149
-0.74149
-0.741317
-0.741318
-0.741318
-0.741319
-0.74132
-0.741363
-0.741314
-0.74128
-0.741279
-0.741278
-0.741279
-0.741279
-0.741385
-0.741385
-0.741385
-0.741385
-0.741385
-0.741371
-0.741521
-0.741564
-0.741566
-0.741569
-0.741572
-0.741573
-0.741849
-0.741849
-0.741848
-0.741847
-0.741848
-0.741799
-0.742433
-0.742554
-0.74255
-0.742546
-0.742555
-0.74255
-0.743806
-0.7438
-0.7438
-0.743797
-0.743807
-0.743532
-0.74523
-0.745743
-0.745736
-0.745748
-0.745739
-0.745745
-0.748497
-0.748496
-0.7485
-0.748492
-0.748496
-0.747648
-0.750766
-0.752043
-0.752039
-0.752039
-0.75204
-0.752041
-0.755844
-0.755858
-0.755841
-0.755854
-0.755853
-0.754174
-0.757044
-0.758335
-0.758336
-0.758321
-0.758335
-0.758321
-0.752377
-0.752382
-0.752381
-0.752397
-0.752399
-0.750942
-0.650148
-0.651459
-0.651402
-0.651368
-0.651325
-0.651307
-0.546545
-0.546719
-0.546897
-0.547116
-0.54739
-0.547584
-0.44461
-0.441807
-0.440732
-0.439835
-0.439083
-0.43847
-0.32899
-0.330797
-0.332955
-0.335555
-0.338665
-0.345485
-0.255367
-0.239722
-0.23321
-0.227781
-0.22325
-0.219481
-0.140953
-0.146835
-0.153878
-0.162339
-0.172476
-0.201281
-0.161013
-0.13393
-0.123836
-0.115417
-0.108395
-0.102536
-0.0845212
-0.0909502
-0.0986592
-0.107906
-0.118993
-0.153272
-0.152032
-0.118426
-0.107529
-0.0984434
-0.090872
-0.0845596
-0.055702
-0.062118
-0.069825
-0.0790677
-0.0901572
-0.119903
-0.119726
-0.0901985
-0.0791371
-0.0699178
-0.0622352
-0.0558341
-0.0559348
-0.0623345
-0.0700128
-0.0792294
-0.090286
-0.119792
-0.119885
-0.09036
-0.0793001
-0.0700811
-0.0623981
-0.0559987
-0.056035
-0.0624365
-0.0701223
-0.0793462
-0.0904114
-0.119955
-0.119996
-0.090438
-0.0793716
-0.0701434
-0.0624574
-0.0560507
-0.0310356
-0.0376903
-0.0456824
-0.0552686
-0.0667782
-0.101944
-0.101965
-0.0667836
-0.0552731
-0.0456868
-0.0376947
-0.0310345
-0.00475234
-0.0105704
-0.0175555
-0.0259385
-0.0359954
-0.067837
-0.0395584
-0.01046
-0.000253876
0.008248
0.0153334
0.0212391
0.0404698
0.0333147
0.0247259
0.0144215
0.00205439
-0.0332078
-0.0253338
0.0118838
0.0262275
0.0381783
0.0481395
0.0564387
0.0735465
0.0653313
0.0554712
0.043645
0.0294502
-0.0104385
0.00797175
0.0509489
0.0629875
0.0730182
0.0813802
0.0883472
0.0973551
0.0916742
0.08486
0.076682
0.0668671
0.032949
0.0475238
0.0726977
0.0826786
0.0909938
0.0979231
0.103697
0.10935
0.102479
0.0942401
0.0843611
0.0725194
0.0438946
0.0125769
0.0335395
0.040631
0.046618
0.0517375
0.0561842
-0.0413564
-0.0440858
-0.0468152
-0.0495463
-0.0522798
-0.0612414
-0.149654
-0.145114
-0.144431
-0.143746
-0.143061
-0.142379
-0.243667
-0.243744
-0.243822
-0.243902
-0.243979
-0.246009
-0.345361
-0.344585
-0.344584
-0.344583
-0.344583
-0.344582
-0.444895
-0.444896
-0.444896
-0.444897
-0.444897
-0.445168
-0.544859
-0.544792
-0.544792
-0.544791
-0.544791
-0.54479
-0.644656
-0.644656
-0.644657
-0.644657
-0.644658
-0.644584
-0.74474
-0.745002
-0.745001
-0.745
-0.744999
-0.744999
-0.743881
-0.743882
-0.743883
-0.743884
-0.743886
-0.743734
-0.843911
-0.844262
-0.84426
-0.844259
-0.844258
-0.844257
-0.842512
-0.842512
-0.842514
-0.842516
-0.842518
-0.842339
-0.841218
-0.841292
-0.84129
-0.841288
-0.841287
-0.841286
-0.840511
-0.840512
-0.840512
-0.840514
-0.840515
-0.840499
-0.840073
-0.84006
-0.840059
-0.840058
-0.840058
-0.840057
-0.839807
-0.839808
-0.839808
-0.839809
-0.83981
-0.839838
-0.839748
-0.839711
-0.839709
-0.839708
-0.839705
-0.839704
-0.839718
-0.839722
-0.839727
-0.839731
-0.839737
-0.839755
-0.839903
-0.83991
-0.839909
-0.839903
-0.8399
-0.839898
-0.840257
-0.840262
-0.840253
-0.840258
-0.84026
-0.840214
-0.840849
-0.84098
-0.840974
-0.840977
-0.840982
-0.840977
-0.842208
-0.842208
-0.842217
-0.842205
-0.842212
-0.841929
-0.843618
-0.844138
-0.844138
-0.844138
-0.844139
-0.844134
-0.846946
-0.84696
-0.846946
-0.846953
-0.846956
-0.846078
-0.849319
-0.850716
-0.850705
-0.850707
-0.850715
-0.850708
-0.855026
-0.855015
-0.855021
-0.855013
-0.855025
-0.852883
-0.856075
-0.858709
-0.858705
-0.858704
-0.858703
-0.858705
-0.859288
-0.859293
-0.859289
-0.859293
-0.85929
-0.858063
-0.901263
-0.901673
-0.901661
-0.901652
-0.901641
-0.901634
-0.925136
-0.933818
-0.941056
-0.947091
-0.95212
-0.952118
-0.94709
-0.94106
-0.933826
-0.925149
-0.925159
-0.933836
-0.941071
-0.947095
-0.952111
-0.952112
-0.94709
-0.941069
-0.93384
-0.925177
-0.925192
-0.933852
-0.941078
-0.947085
-0.952103
-0.952259
-0.947095
-0.940903
-0.933468
-0.924549
-0.925769
-0.934473
-0.941733
-0.947775
-0.952813
-0.909952
-0.903518
-0.895797
-0.88653
-0.875409
-0.848824
-0.805085
-0.838042
-0.851606
-0.862912
-0.872332
-0.880179
-0.880022
-0.872009
-0.862386
-0.850842
-0.836988
-0.837535
-0.851203
-0.862593
-0.872085
-0.879992
-0.880008
-0.872097
-0.862602
-0.851207
-0.837532
-0.837533
-0.851214
-0.862609
-0.872106
-0.880021
-0.880039
-0.872118
-0.862617
-0.851213
-0.837534
-0.837531
-0.851214
-0.862619
-0.872124
-0.880042
-0.86531
-0.85682
-0.846633
-0.834407
-0.819735
-0.819736
-0.834404
-0.846628
-0.856815
-0.865302
-0.865293
-0.856807
-0.846622
-0.8344
-0.819736
-0.819732
-0.834395
-0.846614
-0.856794
-0.865279
-0.865262
-0.856783
-0.846604
-0.834389
-0.819732
-0.818248
-0.833338
-0.845913
-0.856389
-0.865116
-0.865071
-0.856239
-0.845638
-0.832915
-0.817646
-0.782421
-0.782355
-0.782427
-0.782413
-0.782394
-0.782376
-0.782372
-0.718849
-0.718907
-0.718952
-0.719021
-0.719099
-0.718006
-0.63647
-0.63687
-0.636494
-0.636195
-0.635926
-0.635718
-0.536332
-0.537045
-0.537875
-0.538899
-0.540107
-0.542446
-0.446179
-0.439753
-0.436594
-0.433968
-0.431763
-0.429938
-0.321635
-0.325341
-0.329774
-0.335102
-0.341485
-0.356639
-0.302176
-0.274007
-0.264406
-0.256406
-0.249731
-0.24417
-0.204071
-0.209653
-0.216363
-0.224407
-0.234046
-0.260252
-0.222139
-0.195123
-0.185138
-0.176808
-0.169868
-0.16408
-0.150277
-0.156539
-0.164047
-0.173053
-0.183859
-0.214797
-0.191919
-0.153462
-0.14174
-0.131966
-0.123819
-0.117028
-0.116792
-0.123479
-0.131495
-0.141117
-0.152661
-0.190297
-0.189929
-0.152611
-0.141102
-0.131509
-0.12352
-0.116854
-0.0846825
-0.0909808
-0.0985418
-0.107615
-0.118497
-0.151854
-0.151904
-0.118583
-0.107705
-0.0986385
-0.0910826
-0.0847911
-0.0848593
-0.0911541
-0.0987124
-0.107781
-0.118667
-0.152003
-0.15208
-0.118722
-0.107831
-0.0987591
-0.0911983
-0.0849014
-0.0849197
-0.0912192
-0.0987858
-0.107857
-0.118753
-0.152127
-0.152154
-0.118768
-0.107872
-0.098798
-0.0912294
-0.0849263
-0.0560562
-0.0624657
-0.070154
-0.0793823
-0.0904507
-0.120019
-0.120028
-0.0904544
-0.0793822
-0.0701553
-0.0624647
-0.0560552
-0.0310303
-0.0376905
-0.0456828
-0.0552737
-0.0667828
-0.101973
-0.0678401
-0.0359944
-0.0259348
-0.0175544
-0.0105668
-0.00474871
0.0212419
0.0153362
0.00825068
-0.000253322
-0.0104582
-0.0395626
-0.0332167
0.00205216
0.0144198
0.0247243
0.0333152
0.040471
0.0564391
0.048136
0.0381749
0.0262257
0.0118817
-0.0253423
-0.0104427
0.0294509
0.0436458
0.0554714
0.0653274
0.0735426
0.088343
0.0813784
0.073019
0.0629881
0.05095
0.00797244
0.032953
0.0668697
0.076681
0.0848584
0.0916734
0.0973513
0.103695
0.097921
0.0909908
0.0826779
0.0727006
0.0475285
0.0439002
0.0725205
0.0843601
0.0942365
0.102474
0.109345
0.0561946
0.0517484
0.0466281
0.0406416
0.0335505
0.0125898
-0.0612263
-0.052266
-0.0495331
-0.0468033
-0.0440713
-0.0413407
-0.142372
-0.143055
-0.143738
-0.144422
-0.145107
-0.149647
-0.246019
-0.243988
-0.24391
-0.243832
-0.243755
-0.243677
-0.344625
-0.344625
-0.344625
-0.344626
-0.344627
-0.345399
-0.44527
-0.445007
-0.445007
-0.445006
-0.445006
-0.445005
-0.545046
-0.545046
-0.545046
-0.545047
-0.545047
-0.545092
-0.645085
-0.645213
-0.645213
-0.645212
-0.645212
-0.645212
-0.746163
-0.746163
-0.746164
-0.746165
-0.746165
-0.745779
-0.847905
-0.848778
-0.848778
-0.848777
-0.848777
-0.848777
-0.846439
-0.846439
-0.84644
-0.84644
-0.846441
-0.845849
-0.948405
-0.949586
-0.949586
-0.949586
-0.949586
-0.949586
-0.945558
-0.945559
-0.945559
-0.94556
-0.945561
-0.944878
-0.942153
-0.942503
-0.942501
-0.942499
-0.942498
-0.942497
-0.940441
-0.940442
-0.940444
-0.940446
-0.940449
-0.940297
-0.939158
-0.939209
-0.939206
-0.939204
-0.939202
-0.939202
-0.938526
-0.938526
-0.938527
-0.938528
-0.938529
-0.938524
-0.93819
-0.938172
-0.938171
-0.93817
-0.938169
-0.938169
-0.937998
-0.938002
-0.938004
-0.938005
-0.938008
-0.938042
-0.937997
-0.937966
-0.937958
-0.937953
-0.937947
-0.937942
-0.938079
-0.938082
-0.938086
-0.938092
-0.938103
-0.938111
-0.938382
-0.938415
-0.938409
-0.938409
-0.938409
-0.938409
-0.939016
-0.939016
-0.939016
-0.939019
-0.939016
-0.938914
-0.939806
-0.94003
-0.940039
-0.940028
-0.940037
-0.940032
-0.941638
-0.941632
-0.941632
-0.941636
-0.941637
-0.941214
-0.943297
-0.944019
-0.944018
-0.944019
-0.944006
-0.944022
-0.947274
-0.94727
-0.94728
-0.947282
-0.947274
-0.946065
-0.949143
-0.951289
-0.951292
-0.951295
-0.951284
-0.951287
-0.955737
-0.955723
-0.955737
-0.955733
-0.955731
-0.951683
-0.967779
-0.985702
-0.991846
-0.996967
-1.00123
-1.00479
-1.00422
-1.00422
-1.00422
-1.00422
-1.00422
-1.00071
-1.00072
-1.00072
-1.00072
-1.00073
-0.996532
-0.996526
-0.996516
-0.99651
-0.9965
-0.991445
-0.991457
-0.991468
-0.991489
-0.991507
-0.985466
-0.985436
-0.985413
-0.985399
-0.985378
-0.969986
-0.969988
-0.970007
-0.97002
-0.970035
-1.05322
-1.0532
-1.05319
-1.05318
-1.05316
-1.05718
-1.05719
-1.05722
-1.05724
-1.05727
-1.05973
-1.05971
-1.05969
-1.05967
-1.05966
-1.06173
-1.06173
-1.06175
-1.06176
-1.06177
-1.06348
-1.06347
-1.06346
-1.06345
-1.06345
-1.06488
-1.06488
-1.06488
-1.0649
-1.0649
-1.06536
-1.0639
-1.06213
-1.06001
-1.05747
-1.0529
-1.05264
-1.05806
-1.06064
-1.0628
-1.06459
-1.06608
-1.00589
-1.00241
-0.998227
-0.99321
-0.987186
-0.965479
-0.902073
-0.904992
-0.929569
-0.937328
-0.943798
-0.949186
-0.953669
-0.910435
-0.904666
-0.897743
-0.889438
-0.879473
-0.851482
-0.807368
-0.841181
-0.853843
-0.864397
-0.873187
-0.880516
-0.865285
-0.856769
-0.846549
-0.834285
-0.819566
-0.784433
-0.78335
-0.818606
-0.833642
-0.846171
-0.856611
-0.865307
-0.865138
-0.856125
-0.845306
-0.832319
-0.816735
-0.781294
-0.780855
-0.817175
-0.832642
-0.845531
-0.856266
-0.865214
-0.865357
-0.86537
-0.865381
-0.865386
-0.865393
-0.856643
-0.856639
-0.856635
-0.856629
-0.856619
-0.846134
-0.846137
-0.84614
-0.84614
-0.846141
-0.833537
-0.833539
-0.833544
-0.833546
-0.833548
-0.818448
-0.818438
-0.818431
-0.81842
-0.818413
-0.78038
-0.78041
-0.780446
-0.780499
-0.78055
-0.716475
-0.716204
-0.715975
-0.715788
-0.715625
-0.630746
-0.631275
-0.631917
-0.632667
-0.633587
-0.634442
-0.54167
-0.53706
-0.534672
-0.532676
-0.531029
-0.529631
-0.420822
-0.42375
-0.427285
-0.431528
-0.436603
-0.447973
-0.370561
-0.352067
-0.344568
-0.338322
-0.333109
-0.328759
-0.27061
-0.275952
-0.282362
-0.29005
-0.299274
-0.325142
-0.31768
-0.288018
-0.278416
-0.27041
-0.263739
-0.258177
-0.220291
-0.226568
-0.234099
-0.243134
-0.25397
-0.292187
-0.251785
-0.218301
-0.207739
-0.198928
-0.19158
-0.185458
-0.184888
-0.190864
-0.198028
-0.206626
-0.216937
-0.249848
-0.212912
-0.182773
-0.172276
-0.163532
-0.156237
-0.150161
-0.150134
-0.156179
-0.163427
-0.172121
-0.182558
-0.212419
-0.21236
-0.182562
-0.172141
-0.163458
-0.156224
-0.150187
-0.116944
-0.123599
-0.131584
-0.141167
-0.152668
-0.189909
-0.189988
-0.152739
-0.141237
-0.131652
-0.123667
-0.117009
-0.117052
-0.123714
-0.131701
-0.141291
-0.152793
-0.190061
-0.190113
-0.152827
-0.141322
-0.13173
-0.123738
-0.117079
-0.11709
-0.12375
-0.131745
-0.141337
-0.152847
-0.190142
-0.190156
-0.152855
-0.141343
-0.131749
-0.123753
-0.117093
-0.0849267
-0.09123
-0.0987983
-0.107878
-0.118772
-0.152166
-0.152171
-0.118772
-0.107876
-0.0987934
-0.0912275
-0.0849224
-0.0560493
-0.0624588
-0.0701518
-0.0793793
-0.0904536
-0.12003
-0.101974
-0.066779
-0.0552692
-0.0456759
-0.0376809
-0.0310239
-0.00473947
-0.0105647
-0.0175487
-0.0259318
-0.0359917
-0.0678405
-0.0395621
-0.0104538
-0.000247826
0.00825408
0.0153444
0.0212469
0.040476
0.0333181
0.0247284
0.0144242
0.00205468
-0.0332182
-0.025344
0.0118819
0.0262269
0.0381771
0.0481362
0.056441
0.0735397
0.0653265
0.0554731
0.0436455
0.0294518
-0.0104443
0.00797146
0.0509512
0.0629877
0.07302
0.0813773
0.0883416
0.0973484
0.0916715
0.0848556
0.0766791
0.0668692
0.0329553
0.0475328
0.0727002
0.0826764
0.0909906
0.0979193
0.103693
0.109341
0.102471
0.0942348
0.0843583
0.0725188
0.043902
0.0125944
0.03355
0.0406414
0.0466277
0.0517476
0.0561946
-0.0413348
-0.0440641
-0.0467953
-0.0495264
-0.0522582
-0.061217
-0.149644
-0.145104
-0.144418
-0.143734
-0.143051
-0.142367
-0.243685
-0.243762
-0.243839
-0.243917
-0.243996
-0.246026
-0.345429
-0.344659
-0.344658
-0.344658
-0.344657
-0.344657
-0.445095
-0.445096
-0.445096
-0.445096
-0.445097
-0.44535
-0.545281
-0.545256
-0.545255
-0.545255
-0.545254
-0.545254
-0.645679
-0.645679
-0.64568
-0.64568
-0.645681
-0.645507
-0.746667
-0.747166
-0.747165
-0.747164
-0.747164
-0.747164
-0.850832
-0.850832
-0.850832
-0.850832
-0.850832
-0.849691
-0.956357
-0.957535
-0.957559
-0.957583
-0.957606
-0.957632
-0.953972
-0.953972
-0.953972
-0.953971
-0.953971
-0.952468
-1.06171
-1.06207
-1.06213
-1.0622
-1.06226
-1.06233
-1.0546
-1.0546
-1.0546
-1.0546
-1.0546
-1.0534
-1.0466
-1.04777
-1.04777
-1.04777
-1.04777
-1.04777
-1.04285
-1.04285
-1.04285
-1.04285
-1.04285
-1.04227
-1.03947
-1.03973
-1.03972
-1.03972
-1.03972
-1.03972
-1.0379
-1.0379
-1.0379
-1.0379
-1.03791
-1.03782
-1.03692
-1.03694
-1.03694
-1.03694
-1.03694
-1.03694
-1.03646
-1.03646
-1.03646
-1.03646
-1.03646
-1.03647
-1.03626
-1.03623
-1.03623
-1.03623
-1.03623
-1.03623
-1.03612
-1.03612
-1.03612
-1.03613
-1.03614
-1.03617
-1.03622
-1.0362
-1.0362
-1.03619
-1.03619
-1.03619
-1.03641
-1.03641
-1.03641
-1.03641
-1.0364
-1.0364
-1.03674
-1.0368
-1.03681
-1.03681
-1.0368
-1.0368
-1.03746
-1.03746
-1.03747
-1.03746
-1.03747
-1.03733
-1.03827
-1.03852
-1.03852
-1.03851
-1.03852
-1.03851
-1.04008
-1.04009
-1.04009
-1.04009
-1.04009
-1.03968
-1.04161
-1.04227
-1.04227
-1.04227
-1.04227
-1.04227
-1.04506
-1.04507
-1.04506
-1.04507
-1.04507
-1.04394
-1.04734
-1.04864
-1.04864
-1.04863
-1.04864
-1.04863
-1.13721
-1.1372
-1.13721
-1.13721
-1.13721
-1.13825
-1.13594
-1.13353
-1.13244
-1.13154
-1.13079
-1.13015
-1.12985
-1.12983
-1.12983
-1.12982
-1.12982
-1.13042
-1.13042
-1.13044
-1.13044
-1.13046
-1.13119
-1.13117
-1.13116
-1.13115
-1.13114
-1.132
-1.13201
-1.13203
-1.13205
-1.13207
-1.13312
-1.1331
-1.13307
-1.13305
-1.13304
-1.13512
-1.13513
-1.13514
-1.13516
-1.13517
-1.22036
-1.22034
-1.22033
-1.22032
-1.22031
-1.20694
-1.20696
-1.20698
-1.207
-1.20703
-1.20263
-1.2026
-1.20258
-1.20257
-1.20256
-1.1989
-1.19891
-1.19892
-1.19893
-1.19895
-1.19589
-1.19587
-1.19587
-1.19586
-1.19585
-1.1933
-1.19331
-1.19331
-1.19332
-1.19333
-1.19362
-1.1962
-1.1993
-1.20301
-1.20747
-1.22276
-1.22548
-1.20735
-1.20303
-1.19943
-1.19644
-1.19393
-1.13072
-1.13137
-1.13214
-1.13306
-1.13416
-1.13705
-1.13761
-1.13442
-1.13335
-1.13246
-1.13172
-1.1311
-1.06658
-1.06515
-1.06343
-1.06136
-1.05887
-1.05303
-0.965438
-0.989314
-0.99493
-0.999607
-1.00351
-1.00675
-1.00722
-1.00407
-1.00029
-0.995755
-0.990315
-0.967266
-0.907583
-0.931654
-0.938937
-0.945007
-0.950064
-0.954272
-0.910641
-0.905191
-0.898651
-0.890801
-0.881386
-0.852542
-0.807863
-0.842692
-0.854942
-0.86515
-0.873657
-0.880746
-0.865398
-0.857052
-0.847034
-0.835013
-0.820589
-0.785387
-0.7843
-0.819641
-0.834373
-0.846648
-0.856878
-0.865399
-0.88075
-0.873315
-0.8644
-0.853695
-0.840851
-0.805577
-0.805052
-0.839344
-0.852621
-0.863681
-0.872898
-0.880576
-0.880336
-0.87214
-0.862302
-0.850494
-0.836323
-0.802544
-0.798792
-0.796128
-0.79597
-0.795833
-0.795728
-0.795633
-0.834212
-0.849018
-0.861358
-0.871642
-0.880207
-0.880205
-0.871646
-0.861368
-0.849034
-0.834235
-0.83426
-0.849048
-0.861377
-0.871645
-0.880199
-0.880191
-0.871645
-0.861384
-0.849069
-0.834291
-0.834325
-0.849091
-0.861393
-0.871646
-0.880183
-0.880226
-0.871725
-0.861519
-0.849271
-0.83457
-0.871413
-0.883701
-0.893947
-0.902477
-0.909586
-0.909261
-0.902125
-0.893568
-0.883286
-0.870957
-0.870903
-0.883252
-0.893548
-0.902122
-0.909263
-0.909262
-0.902112
-0.893524
-0.883227
-0.870863
-0.870824
-0.883203
-0.89351
-0.902105
-0.909262
-0.909264
-0.902098
-0.893501
-0.883182
-0.870799
-0.837185
-0.837309
-0.837453
-0.837622
-0.837831
-0.84087
-0.812912