/*--------------------------------*- C++ -*----------------------------------*\
| =========                 |                                                 |
| \\      /  F ield         | OpenFOAM: The Open Source CFD Toolbox           |
|  \\    /   O peration     | Version:  2212                                  |
|   \\  /    A nd           | Website:  www.openfoam.com                      |
|    \\/     M anipulation  |                                                 |
\*---------------------------------------------------------------------------*/
FoamFile
{
    version     2.0;
    format      ascii;
    arch        "LSB;label=32;scalar=64";
    class       volScalarField;
    location    "350";
    object      T;
}
// * * * * * * * * * * * * * * * * * * * * * * * * * * * * * * * * * * * * * //

dimensions      [0 0 0 1 0 0 0];

internalField   nonuniform List<scalar> 
248319
(
309.547
309.541
309.402
309.36
309.346
309.353
309.36
309.431
309.421
309.397
309.391
309.427
309.541
309.476
309.376
309.347
309.338
309.334
309.326
309.283
309.293
309.318
309.347
309.378
309.42
309.424
309.378
309.355
309.328
309.3
309.291
309.265
309.27
309.283
309.302
309.331
309.467
309.6
309.439
309.358
309.317
309.299
309.293
309.307
309.316
309.351
309.412
309.49
309.66
309.747
309.611
309.512
309.422
309.356
309.332
309.336
309.351
309.397
309.464
309.541
309.71
309.606
309.445
309.392
309.356
309.342
309.342
309.365
309.364
309.369
309.396
309.447
309.695
309.592
309.418
309.401
309.428
309.464
309.478
309.379
309.385
309.383
309.38
309.397
309.521
309.462
309.409
309.373
309.343
309.321
309.308
309.349
309.384
309.429
309.478
309.532
309.596
309.557
309.489
309.442
309.397
309.354
309.326
309.339
309.376
309.427
309.483
309.547
309.623
309.648
309.519
309.425
309.35
309.305
309.291
309.335
309.358
309.426
309.512
309.598
309.728
309.819
309.713
309.625
309.53
309.444
309.409
309.492
309.529
309.617
309.709
309.798
309.899
309.82
309.702
309.607
309.512
309.431
309.399
309.392
309.414
309.483
309.574
309.674
309.815
309.887
309.663
309.552
309.461
309.398
309.375
309.335
309.348
309.387
309.45
309.528
309.775
309.887
309.526
309.444
309.39
309.362
309.355
309.434
309.425
309.409
309.413
309.455
309.79
309.668
309.451
309.456
309.503
309.552
309.569
309.424
309.429
309.423
309.413
309.416
309.574
309.517
309.448
309.399
309.36
309.332
309.316
309.348
309.395
309.454
309.519
309.591
309.673
309.798
309.674
309.578
309.489
309.408
309.345
309.34
309.389
309.451
309.519
309.593
309.675
309.732
309.619
309.533
309.453
309.38
309.322
309.312
309.356
309.415
309.48
309.554
309.642
309.659
309.523
309.424
309.345
309.294
309.278
309.322
309.347
309.415
309.505
309.601
309.754
309.873
309.735
309.626
309.524
309.438
309.405
309.492
309.528
309.616
309.718
309.831
309.968
310.038
309.896
309.79
309.693
309.605
309.564
309.547
309.587
309.676
309.765
309.849
309.943
309.864
309.75
309.664
309.576
309.494
309.458
309.445
309.477
309.562
309.664
309.771
309.882
309.986
309.804
309.661
309.541
309.455
309.425
309.427
309.448
309.519
309.643
309.838
310.097
309.97
309.648
309.526
309.444
309.396
309.381
309.469
309.481
309.526
309.618
309.748
310.124
310.031
309.572
309.492
309.449
309.435
309.436
309.587
309.568
309.522
309.493
309.524
309.975
309.84
309.537
309.554
309.615
309.673
309.694
309.489
309.494
309.483
309.465
309.463
309.691
309.636
309.532
309.457
309.397
309.356
309.335
309.37
309.437
309.522
309.616
309.717
309.829
309.987
309.825
309.693
309.569
309.456
309.369
309.361
309.459
309.59
309.737
309.899
310.077
309.87
309.729
309.613
309.506
309.408
309.333
309.32
309.402
309.51
309.631
309.763
309.911
309.76
309.639
309.543
309.454
309.372
309.306
309.288
309.336
309.4
309.47
309.551
309.648
309.658
309.51
309.407
309.328
309.279
309.264
309.308
309.332
309.398
309.489
309.591
309.764
309.916
309.748
309.626
309.516
309.433
309.403
309.502
309.536
309.625
309.739
309.869
310.037
310.13
309.971
309.845
309.731
309.635
309.597
309.697
309.739
309.837
309.948
310.062
310.188
310.064
309.941
309.851
309.764
309.681
309.64
309.595
309.636
309.721
309.803
309.882
309.962
309.887
309.785
309.71
309.629
309.55
309.512
309.491
309.526
309.613
309.711
309.811
309.913
310.012
309.861
309.723
309.599
309.506
309.471
309.47
309.494
309.577
309.725
309.944
310.125
310.257
310.102
309.976
309.789
309.673
309.644
309.545
309.565
309.643
309.805
309.973
310.229
310.441
310.212
310.12
310.01
309.904
309.864
309.71
309.73
309.792
309.897
310.006
310.326
310.248
309.767
309.679
309.634
309.629
309.634
309.797
309.773
309.712
309.663
309.687
310.192
310.114
309.683
309.68
309.742
309.805
309.827
309.579
309.582
309.563
309.535
309.534
309.937
309.87
309.703
309.577
309.475
309.405
309.368
309.424
309.53
309.668
309.819
309.975
310.13
310.315
310.101
309.906
309.72
309.552
309.425
309.409
309.541
309.723
309.933
310.164
310.417
310.425
310.139
309.898
309.686
309.509
309.384
309.338
309.438
309.574
309.733
309.911
310.114
310.119
309.897
309.713
309.552
309.415
309.318
309.298
309.382
309.495
309.623
309.767
309.929
309.775
309.649
309.545
309.449
309.359
309.289
309.266
309.317
309.386
309.462
309.549
309.655
309.655
309.492
309.388
309.311
309.265
309.25
309.3
309.324
309.387
309.475
309.578
309.774
309.95
309.755
309.629
309.519
309.44
309.413
309.53
309.561
309.65
309.771
309.911
310.104
310.23
310.052
309.911
309.785
309.684
309.646
309.761
309.807
309.917
310.043
310.172
310.313
310.381
310.271
310.165
310.046
309.928
309.872
309.788
309.834
309.932
310.033
310.127
310.216
310.067
309.972
309.902
309.829
309.755
309.716
309.639
309.679
309.757
309.83
309.896
309.964
309.91
309.822
309.755
309.679
309.601
309.564
309.533
309.566
309.651
309.746
309.839
309.932
310.014
309.875
309.746
309.628
309.538
309.506
309.494
309.515
309.59
309.733
309.937
310.106
310.215
310.127
310.024
309.874
309.771
309.74
310.079
310.105
310.174
310.248
310.3
310.344
310.423
310.289
310.21
310.125
310.048
310.01
310.168
310.204
310.3
310.398
310.491
310.646
310.677
310.414
310.306
310.21
310.123
310.081
309.952
309.984
310.066
310.148
310.23
310.579
310.5
310.053
309.958
309.895
309.876
309.876
310.016
309.993
309.939
309.902
309.944
310.419
310.322
309.838
309.814
309.863
309.919
309.939
309.675
309.678
309.66
309.638
309.653
310.262
310.246
310.026
309.822
309.636
309.501
309.429
309.525
309.696
309.914
310.135
310.317
310.46
310.668
310.44
310.209
309.952
309.707
309.521
309.494
309.67
309.918
310.199
310.49
310.786
310.788
310.411
310.108
309.834
309.608
309.456
309.421
309.547
309.746
309.998
310.286
310.695
310.366
310.083
309.845
309.638
309.47
309.357
309.333
309.433
309.588
309.782
310.006
310.277
310.092
309.871
309.686
309.524
309.389
309.296
309.278
309.362
309.477
309.61
309.76
309.929
309.786
309.654
309.544
309.441
309.346
309.272
309.246
309.301
309.375
309.455
309.546
309.657
309.657
309.477
309.371
309.295
309.252
309.239
309.302
309.326
309.386
309.471
309.573
309.786
309.983
309.772
309.646
309.539
309.464
309.438
309.581
309.611
309.698
309.819
309.964
310.179
310.346
310.152
310.001
309.865
309.759
309.722
309.86
309.91
310.033
310.172
310.312
310.464
310.562
310.455
310.339
310.2
310.061
309.996
310.147
310.229
310.401
310.58
310.742
310.889
310.563
310.442
310.327
310.195
310.063
309.998
309.89
309.94
310.041
310.142
310.233
310.316
310.097
310.016
309.957
309.895
309.829
309.793
309.689
309.726
309.793
309.853
309.907
309.96
309.997
309.914
309.845
309.764
309.683
309.647
309.58
309.613
309.7
309.798
309.879
309.955
310.025
309.873
309.749
309.64
309.561
309.534
309.504
309.522
309.581
309.683
309.864
310.093
310.185
310.127
310.042
309.896
309.792
309.759
310.13
310.156
310.222
310.278
310.3
310.293
310.42
310.449
310.436
310.382
310.298
310.258
310.201
310.237
310.326
310.4
310.445
310.49
310.673
310.611
310.567
310.5
310.402
310.352
310.327
310.372
310.483
310.591
310.707
310.881
310.976
310.67
310.526
310.407
310.3
310.25
310.149
310.189
310.269
310.358
310.465
310.878
310.786
310.279
310.191
310.114
310.052
310.032
310.145
310.132
310.103
310.104
310.168
310.669
310.527
309.989
309.933
309.949
309.981
309.993
309.754
309.768
309.785
309.812
309.849
310.458
310.47
310.355
310.16
309.888
309.661
309.537
309.693
309.948
310.251
310.467
310.621
310.763
311.05
310.778
310.546
310.264
309.931
309.673
309.624
309.849
310.172
310.512
310.823
311.199
311.162
310.666
310.338
310.023
309.75
309.572
309.527
309.664
309.882
310.148
310.438
311.031
310.856
310.203
309.965
309.757
309.592
309.488
309.388
309.49
309.655
309.872
310.127
310.571
310.427
309.961
309.751
309.576
309.443
309.362
309.306
309.392
309.528
309.703
309.907
310.173
310.043
309.829
309.649
309.49
309.361
309.274
309.258
309.341
309.457
309.593
309.746
309.922
309.79
309.656
309.542
309.434
309.334
309.256
309.229
309.288
309.368
309.453
309.548
309.665
309.665
309.467
309.358
309.283
309.242
309.23
309.314
309.338
309.398
309.48
309.579
309.807
310.03
309.806
309.683
309.58
309.507
309.482
309.656
309.685
309.771
309.891
310.033
310.26
310.466
310.266
310.112
309.972
309.862
309.825
309.988
310.043
310.175
310.322
310.462
310.611
310.746
310.652
310.536
310.384
310.226
310.151
310.326
310.429
310.645
310.87
311.068
311.232
312.584
312.241
311.899
311.526
311.19
311.052
310.824
310.96
311.276
311.619
311.921
312.183
311.781
311.53
311.268
310.971
310.69
310.565
310.377
310.491
310.737
310.989
311.201
311.379
311.205
311.024
310.833
310.604
310.373
310.263
310.149
310.257
310.485
310.712
310.894
311.034
310.831
310.637
310.469
310.288
310.116
310.045
309.959
309.997
310.121
310.294
310.541
311.032
310.058
309.95
309.829
309.718
309.635
309.607
309.567
309.588
309.666
309.833
310.016
310.116
310.182
310.208
310.18
310.082
309.949
309.898
310.229
310.258
310.315
310.33
310.308
310.252
310.341
310.386
310.431
310.447
310.402
310.367
310.547
310.572
310.592
310.555
310.505
310.457
310.573
310.607
310.604
310.563
310.479
310.435
310.647
310.688
310.765
310.794
310.791
310.777
310.877
310.803
310.756
310.695
310.6
310.545
310.525
310.58
310.702
310.823
310.965
311.163
311.337
310.972
310.781
310.633
310.507
310.447
310.354
310.395
310.489
310.601
310.746
311.232
311.121
310.53
310.416
310.318
310.23
310.188
310.099
310.107
310.142
310.217
310.32
310.958
310.762
310.124
310.032
310.008
310.002
310.002
309.937
309.958
310.011
310.063
310.112
310.691
310.714
310.616
310.526
310.386
310.167
309.996
310.249
310.47
310.653
310.804
310.95
311.11
311.493
311.175
310.921
310.684
310.426
310.164
310.03
310.283
310.607
310.905
311.234
311.683
311.601
311.036
310.719
310.41
310.115
309.912
309.815
309.967
310.2
310.472
310.759
311.442
311.223
310.469
310.231
310.017
309.845
309.737
309.705
309.779
309.896
310.04
310.208
310.951
310.626
309.968
309.795
309.648
309.532
309.458
309.468
309.517
309.593
309.687
309.797
310.371
310.242
309.774
309.623
309.497
309.401
309.342
309.284
309.354
309.469
309.62
309.797
310.071
309.98
309.776
309.604
309.453
309.332
309.254
309.24
309.321
309.436
309.572
309.727
309.906
309.795
309.657
309.539
309.427
309.323
309.242
309.216
309.279
309.364
309.454
309.552
309.672
309.682
309.464
309.352
309.275
309.236
309.223
309.335
309.361
309.422
309.503
309.6
309.838
310.087
309.856
309.738
309.639
309.569
309.543
309.751
309.779
309.864
309.982
310.118
310.347
310.586
310.387
310.236
310.095
309.983
309.946
310.131
310.189
310.329
310.477
310.612
310.75
310.933
310.851
310.737
310.576
310.403
310.317
310.536
310.657
310.911
311.18
311.417
311.62
313.015
312.595
312.179
311.748
311.381
311.236
311.333
311.451
311.842
312.427
313.044
313.598
313.278
312.602
312.004
311.496
311.165
311.069
310.85
310.943
311.242
311.675
312.179
312.77
312.211
311.74
311.342
310.98
310.71
310.62
310.432
310.519
310.761
311.061
311.363
311.693
311.369
311.13
310.889
310.616
310.385
310.304
310.269
310.339
310.552
310.792
311.003
311.221
311.14
310.965
310.789
310.578
310.361
310.254
310.18
310.24
310.416
310.655
310.949
311.312
311.5
310.85
310.397
310.173
310.068
310.04
309.838
309.862
309.95
310.18
310.539
311.279
311.548
311.137
310.872
310.609
310.409
310.342
310.84
310.888
311.044
311.291
311.537
311.756
311.905
311.817
311.582
311.301
311.104
311.041
311.228
311.308
311.551
311.842
312.025
312.05
312.224
312.228
312.079
311.794
311.519
311.413
310.732
310.755
310.761
310.713
310.66
310.616
310.826
310.859
310.918
310.971
310.972
310.945
310.864
310.91
310.987
311.014
311.013
311.009
311.127
311.048
310.996
310.931
310.832
310.772
310.75
310.816
310.954
311.094
311.259
311.482
311.759
311.333
311.082
310.896
310.744
310.674
310.58
310.629
310.743
310.887
311.079
311.638
311.505
310.831
310.685
310.566
310.463
310.413
310.16
310.198
310.301
310.425
310.564
311.306
311.054
310.297
310.171
310.092
310.048
310.034
310.231
310.231
310.275
310.341
310.44
310.98
311.011
310.904
310.821
310.739
310.67
310.656
310.763
310.859
311.003
311.16
311.329
311.521
312.017
311.65
311.354
311.089
310.862
310.718
310.652
310.806
311.06
311.378
311.759
312.261
312.19
311.57
311.218
310.928
310.697
310.553
310.463
310.579
310.771
311.004
311.29
312.028
311.8
311.007
310.796
310.628
310.488
310.404
310.424
310.456
310.529
310.626
310.758
311.526
311.371
310.772
310.712
310.678
310.664
310.679
309.953
309.975
310.025
310.092
310.177
310.75
310.995
310.817
310.837
310.864
310.904
310.965
310.136
310.125
310.133
310.152
310.176
310.409
310.078
309.707
309.622
309.548
309.491
309.46
309.267
309.32
309.407
309.523
309.66
309.952
309.903
309.712
309.552
309.412
309.303
309.235
309.224
309.301
309.414
309.548
309.702
309.88
309.797
309.658
309.537
309.421
309.313
309.229
309.205
309.274
309.364
309.459
309.562
309.685
309.706
309.47
309.351
309.271
309.232
309.22
309.364
309.393
309.459
309.54
309.635
309.878
310.151
309.92
309.809
309.713
309.644
309.618
309.857
309.885
309.969
310.082
310.211
310.437
310.697
310.505
310.36
310.222
310.109
310.07
310.267
310.331
310.476
310.622
310.748
310.871
311.104
311.026
310.912
310.746
310.56
310.463
310.689
310.829
311.116
311.423
311.706
311.968
313.272
312.813
312.355
311.888
311.5
311.347
311.476
311.595
311.985
312.569
313.186
313.728
313.813
313.058
312.469
311.966
311.73
311.747
313.282
316.277
326.234
359.349
437.057
429.826
348.072
320.313
314.073
312.463
312.179
312.782
315.689
335.442
418.069
404.623
327.734
314.265
312.81
312.551
313.118
313.283
314.276
324.939
396.857
400.443
326.26
315.049
314.054
313.904
315.329
315.578
317.106
332.161
412.885
411.12
331.529
317.095
315.628
315.388
315.235
315.137
315.358
315.625
316.883
329.744
406.518
399.208
325.959
315.178
314.172
313.922
313.15
313.512
314.697
326.16
401.249
410.712
329.282
314.75
313.05
312.563
312.351
313.253
316.572
338.332
427.373
443.87
355.9
324.284
316.16
313.712
316.693
322.038
335.998
373.764
453.828
455.659
376.292
336.263
321.632
316.089
313.626
316.367
325.152
359.306
447.001
431.933
341.662
317.436
313.568
312.576
312.767
313.324
315.358
332.043
416.685
407.135
328.259
315.123
313.71
313.304
314.03
314.337
315.464
327.195
403.001
404.355
328.685
316.826
315.744
315.507
315.317
313.815
313.027
312.439
312.016
311.946
312.222
311.512
311.56
311.814
312.316
312.943
313.606
313.218
312.527
311.941
311.491
311.261
311.213
310.907
310.949
311.141
311.522
312.029
312.692
312.123
311.565
311.158
310.843
310.677
310.638
310.412
310.451
310.595
310.838
311.131
311.611
311.264
310.911
310.688
310.487
310.347
310.3
310.322
310.398
310.596
310.844
311.088
311.339
311.187
310.903
310.691
310.466
310.294
310.242
310.202
310.24
310.377
310.587
310.838
311.377
311.419
310.975
310.672
310.426
310.257
310.206
310.106
310.134
310.236
310.421
310.737
311.626
311.89
311.213
310.87
310.552
310.391
310.349
310.439
310.509
310.735
311.078
311.354
311.662
311.822
311.723
311.527
311.301
311.154
311.109
311.347
311.398
311.57
311.81
311.972
311.963
312.121
312.177
312.064
311.818
311.609
311.542
311.754
311.836
312.078
312.319
312.398
312.317
312.573
312.665
312.603
312.358
312.081
311.974
311.629
311.752
312.057
312.347
312.483
312.447
312.74
312.78
312.654
312.352
312.015
311.866
311.226
311.251
311.251
311.203
311.15
311.103
311.313
311.298
311.291
311.259
311.174
311.115
311.045
311.108
311.216
311.292
311.357
311.433
311.852
311.591
311.404
311.243
311.085
310.998
310.943
311.02
311.206
311.444
311.756
312.223
312.097
311.467
311.223
311.038
310.895
310.829
310.677
310.728
310.845
310.988
311.167
311.938
311.713
310.88
310.717
310.573
310.449
310.396
310.223
310.25
310.329
310.43
310.562
311.411
311.33
310.811
310.715
310.61
310.53
310.516
310.957
310.978
311.061
311.157
311.256
311.359
311.99
311.725
311.532
311.353
311.19
311.075
311.068
311.249
311.523
311.84
312.195
312.598
312.886
312.308
311.865
311.492
311.189
311.003
310.945
311.101
311.376
311.728
312.143
312.822
312.657
311.848
311.508
311.224
311.008
310.89
310.861
310.931
311.077
311.275
311.522
312.405
312.12
311.271
311.115
311
310.922
310.895
311.228
311.199
311.205
311.238
311.304
311.98
312.326
312.025
312.049
312.096
312.157
312.236
311.691
311.605
311.538
311.484
311.446
311.673
311.56
311.56
311.582
311.573
311.531
311.472
311.322
311.334
311.337
311.317
311.274
311.234
310.732
310.806
310.84
310.86
310.872
310.883
310.11
310.112
310.122
310.136
310.147
310.209
309.858
309.607
309.524
309.453
309.399
309.369
309.219
309.274
309.367
309.487
309.627
309.827
309.844
309.668
309.52
309.39
309.282
309.209
309.218
309.305
309.417
309.537
309.663
309.799
309.703
309.57
309.466
309.367
309.271
309.197
309.218
309.232
309.27
309.356
309.484
309.736
309.923
309.679
309.587
309.503
309.431
309.398
309.7
309.726
309.794
309.885
309.989
310.215
310.516
310.299
310.178
310.071
309.99
309.961
310.184
310.223
310.335
310.466
310.601
310.78
310.933
310.831
310.726
310.591
310.447
310.378
310.577
310.682
310.87
311.024
311.116
311.155
312.115
311.854
311.578
311.27
310.971
310.817
311.334
311.515
311.933
312.434
312.937
313.443
313.782
313.873
314.037
315.306
329.173
411.215
412.737
418.826
423.683
422.261
420.566
346.245
343.881
338.817
332.812
329.325
314.653
314.841
316.242
319.046
321.291
314.462
313.524
312.75
312.813
313.246
313.06
312.521
312.145
312.185
312.457
311.634
311.695
311.964
312.437
312.991
312.965
312.423
311.958
311.655
311.536
311.95
311.977
312.119
312.494
313.004
313.368
312.914
312.763
312.948
313.068
317.136
317.112
316.658
316.741
317.173
340.599
341.492
339.748
337.061
334.96
405.817
411.541
423.434
428.749
427.914
425.274
338.4
317.231
314.151
313.852
313.807
315.15
315.334
315.891
319.707
342.193
427.967
416.643
333.448
317.166
315.513
315.276
315.115
315.159
316.082
316.35
316.728
319.16
338.643
421.396
424.972
339.764
319.388
316.906
316.611
316.498
316.314
316.532
316.821
318.612
335.311
417.227
409.743
331.592
318.139
316.899
316.691
316.533
316.872
317.002
317.174
318.399
331.96
409.895
403.972
328.941
317.111
316.057
315.852
315.677
314.18
314.413
314.686
315.807
327.566
402.634
405.088
413.04
426.292
440.88
450.618
371.073
354.904
339.334
331.216
328.124
315.399
315.497
317.121
322.86
331.195
318.841
315.384
313.652
313.596
314.049
313.665
313.087
312.782
313.304
314.762
312.18
312.109
312.283
312.758
313.381
313.257
312.625
312.098
311.808
311.743
311.399
311.451
311.687
312.141
312.732
313.426
312.715
312.042
311.541
311.187
311.026
310.995
310.643
310.666
310.777
311.034
311.404
311.99
311.485
311.016
310.75
310.546
310.442
310.416
310.285
310.31
310.412
310.582
310.783
311.161
311.671
310.805
310.55
310.372
310.28
310.257
310.243
310.275
310.394
310.602
310.891
311.709
311.638
311.01
310.672
310.431
310.282
310.238
310.178
310.201
310.291
310.456
310.72
312.077
311.566
310.615
310.387
310.236
310.15
310.126
310.282
310.306
310.401
310.598
310.917
311.927
312.448
311.592
311.372
311.142
310.987
310.935
311.068
311.131
311.298
311.493
311.676
312.205
312.555
311.975
311.805
311.617
311.486
311.443
311.671
311.72
311.874
312.078
312.249
312.957
313.438
312.552
312.362
312.134
311.95
311.888
312.131
312.202
312.419
312.68
312.902
314.016
314.717
313.327
313.052
312.744
312.484
312.393
312.236
312.36
312.676
312.943
313.011
312.91
313.373
313.446
313.357
313.049
312.682
312.527
312.164
312.33
312.71
313.046
313.189
313.118
311.462
311.479
311.532
311.574
311.562
311.523
311.443
311.503
311.603
311.65
311.669
311.687
311.805
311.694
311.622
311.534
311.409
311.328
311.319
311.417
311.606
311.801
312.022
312.292
312.754
312.214
311.845
311.563
311.332
311.228
311.129
311.198
311.374
311.6
311.896
312.625
312.449
311.571
311.346
311.167
311.022
310.955
310.68
310.737
310.875
311.036
311.222
312.176
311.835
310.879
310.721
310.602
310.505
310.469
310.833
310.845
310.929
311.027
311.094
311.728
311.754
311.595
311.481
311.373
311.28
311.25
311.442
311.589
311.79
312.005
312.236
312.495
313.208
312.713
312.309
311.944
311.626
311.406
311.36
311.588
311.949
312.387
312.897
313.531
313.458
312.691
312.218
311.812
311.488
311.296
311.255
311.393
311.643
311.964
312.343
313.259
312.976
312.001
311.726
311.503
311.334
311.248
311.344
311.368
311.45
311.57
311.735
312.664
312.581
311.856
311.784
311.75
311.743
311.772
312.656
312.609
312.573
312.547
312.543
312.862
311.225
311.534
311.54
311.487
311.396
311.292
311.429
311.524
311.602
311.642
311.639
311.547
309.92
310.226
310.278
310.245
310.17
310.078
310.427
310.535
310.622
310.663
310.634
310.475
310.8
310.876
310.895
310.861
310.785
310.689
310.766
310.826
310.871
310.888
310.869
310.763
310.424
310.524
310.533
310.524
310.503
310.479
309.736
309.753
309.778
309.807
309.835
309.919
309.746
309.533
309.423
309.328
309.254
309.211
309.196
309.264
309.367
309.492
309.633
309.798
309.796
309.653
309.527
309.406
309.293
309.206
309.196
309.276
309.38
309.486
309.594
309.723
309.769
309.501
309.363
309.269
309.232
309.219
309.435
309.471
309.551
309.636
309.726
309.966
310.271
310.054
309.958
309.873
309.806
309.778
310.056
310.082
310.159
310.257
310.366
310.575
310.823
310.656
310.537
310.42
310.312
310.272
310.463
310.531
310.667
310.781
310.861
310.929
311.082
311.087
311.042
310.924
310.753
310.644
310.932
311.096
311.395
311.686
311.928
312.123
313.529
312.989
312.463
311.939
311.492
311.278
311.248
311.484
311.954
312.492
313.027
313.565
313.826
313.943
315.057
321.527
349.744
435.754
434.5
427.875
413.332
398.007
393.806
326.75
329.034
334.723
343.25
348.737
319.877
317.101
315.702
314.866
314.315
312.149
312.334
312.551
312.903
313.724
312.943
312.442
312.045
311.775
311.622
311.433
311.598
311.938
312.404
312.94
312.991
312.387
311.913
311.551
311.362
311.459
311.653
311.977
312.516
313.645
316.159
313.565
312.393
311.985
311.727
313.051
313.641
315.028
319.24
325.572
356.076
344.371
331.801
325.161
323.321
390.423
394.029
410.809
425.673
436.09
443.645
365.31
332.202
320.1
315.926
314.191
315.978
318.803
324
337.185
370.413
446.43
437.437
353.317
324.747
317.364
315.674
315.224
316.184
316.994
319.353
328.032
358.433
441.091
431.878
347.198
322.236
317.297
316.36
316.065
316.013
316.211
316.584
318.98
338.177
420.821
421.831
339.951
319.951
317.331
316.928
316.74
316.797
317.096
317.533
320.315
341.143
423.514
431.29
344.374
320.979
317.857
317.503
317.387
317.234
317.439
317.729
319.713
337.733
420.921
411.715
332.994
319.099
317.824
317.631
317.489
317.839
317.956
318.122
319.477
334.18
413.712
423.45
338.969
320.284
318.298
318.111
317.998
317.071
317.173
317.347
319.018
335.653
418.206
410.004
331.324
317.572
316.292
316.117
315.994
314.626
313.838
313.171
312.619
312.336
312.301
313.952
317.196
328.313
364.904
443.577
437.411
353.265
322.159
315.089
313.261
313.061
313.89
317.452
340.571
427.801
417.15
333.035
315.964
313.942
313.466
314.082
314.417
315.869
329.921
409.929
407.697
329.421
316.261
315.017
314.792
315.072
315.298
316.883
332.736
416.03
421.8
334.824
316.735
314.745
314.4
313.782
314.308
317.083
338.87
428.595
433.261
345.641
318.677
314.238
313.342
313.354
315.061
322.108
352.189
432.658
432.858
355.985
325.201
316.149
313.624
312.516
312.578
312.891
313.476
314.168
314.924
314.773
314.261
313.687
313.105
312.68
312.53
312.349
312.495
312.913
313.501
314.096
314.618
313.979
313.34
312.745
312.251
311.97
311.9
311.362
311.389
311.543
311.911
312.438
313.077
311.99
311.499
311.173
310.948
310.848
310.835
310.735
310.776
310.917
311.173
311.522
311.957
311.396
311.015
310.774
310.601
310.512
310.492
310.451
310.493
310.621
310.826
311.091
311.439
311.945
311.194
310.794
310.553
310.439
310.412
310.483
310.505
310.626
310.948
311.612
313.173
312.462
310.721
310.461
310.323
310.269
310.259
310.204
310.223
310.299
310.453
310.706
312.361
313.203
310.738
310.46
310.327
310.275
310.266
310.255
310.272
310.344
310.508
310.819
312.679
313.511
311.666
311.24
310.943
310.806
310.775
311.667
311.705
311.814
311.989
312.28
314.35
312.963
311.984
311.802
311.656
311.563
311.532
311.798
311.832
311.941
312.108
312.318
313.545
314.216
312.674
312.418
312.218
312.085
312.045
312.304
312.353
312.514
312.756
313.07
314.982
315.808
313.516
313.128
312.834
312.639
312.581
312.901
312.967
313.199
313.553
314.02
316.582
315.537
313.816
313.468
313.1
312.797
312.695
313.054
313.17
313.527
313.977
314.432
316.478
313.996
314.025
313.871
313.487
313.054
312.874
312.5
312.691
313.121
313.505
313.676
313.614
311.94
311.953
311.996
312.013
311.97
311.914
311.794
311.87
312
312.076
312.118
312.157
312.276
312.147
312.054
311.938
311.783
311.686
311.668
311.79
312.018
312.253
312.513
312.824
313.362
312.757
312.322
311.979
311.699
311.571
311.462
311.548
311.762
312.04
312.398
313.271
313.038
312.017
311.744
311.527
311.355
311.278
310.986
311.051
311.21
311.398
311.618
312.714
312.315
311.217
311.03
310.893
310.78
310.736
311.151
311.169
311.265
311.368
311.406
312.184
312.208
312.02
311.89
311.763
311.649
311.601
311.811
311.993
312.233
312.489
312.764
313.073
313.87
313.312
312.846
312.421
312.047
311.782
311.735
312.004
312.42
312.919
313.493
314.199
314.097
313.241
312.716
312.262
311.896
311.675
311.65
311.803
312.078
312.429
312.841
313.852
313.527
312.472
312.183
311.949
311.773
311.684
311.855
311.877
311.957
312.077
312.246
313.22
313.186
312.426
312.352
312.32
312.316
312.347
312.971
312.968
312.969
312.973
312.988
313.241
310.832
311.327
311.351
311.31
311.237
311.157
309.522
309.552
309.579
309.596
309.573
309.236
309.444
309.823
309.865
309.841
309.792
309.733
308.73
308.792
308.851
308.889
308.885
308.825
309.095
309.231
309.276
309.253
309.188
309.11
309.559
309.66
309.741
309.772
309.729
309.576
310.136
310.211
310.227
310.182
310.089
309.978
310.306
310.404
310.488
310.533
310.532
310.469
310.458
310.555
310.55
310.518
310.465
310.404
310
310.027
310.053
310.075
310.086
310.056
309.696
309.509
309.434
309.368
309.316
309.284
309.184
309.244
309.34
309.457
309.589
309.744
309.789
309.65
309.524
309.401
309.286
309.199
309.192
309.278
309.387
309.498
309.61
309.742
309.8
309.52
309.372
309.273
309.236
309.222
309.47
309.51
309.596
309.685
309.772
310.004
310.312
310.107
310.02
309.942
309.878
309.851
310.129
310.155
310.227
310.314
310.411
310.61
310.834
310.678
310.574
310.473
310.374
310.337
310.512
310.576
310.694
310.781
310.834
310.884
310.935
310.987
310.994
310.923
310.781
310.686
311.012
311.187
311.468
311.72
311.912
312.048
311.904
311.82
311.688
311.485
311.226
311.054
311.245
311.489
311.966
312.5
313.025
313.56
313.315
312.86
312.386
311.888
311.439
311.225
311.223
311.421
311.862
312.429
313.349
315.259
316.674
313.684
312.469
311.851
311.407
311.234
311.325
311.487
311.821
312.54
314.487
318.975
313.749
311.88
311.527
311.375
311.725
311.822
312.468
316.731
325.612
340.584
326.49
317.068
314.897
315.44
341.986
338.523
345.818
359.694
376.034
452.853
446.003
437.94
427.085
430.586
450.001
445.398
448.752
451.511
454.822
380.866
371.516
363.732
360.726
366.857
324.375
322.19
324.9
333.973
345.811
330.759
320.62
314.538
312.923
313.08
311.504
311.607
312.283
315.502
322.856
316.102
312.89
311.807
311.479
311.357
311.307
311.416
311.791
312.587
314.635
321.536
326.767
341.652
350.125
362.189
389.181
456.683
457.141
390.893
368.072
358.782
351.429
332.951
326.381
341.968
356.131
378.022
412.88
468.081
456.95
390.26
354.846
336.409
326.685
318.459
319.786
330.031
340.552
359.923
396.148
461.043
450.2
375.729
341.43
327.091
321.031
317.247
317.989
322.003
328.361
343.243
378.199
451.974
442.608
360.727
329.543
320.343
317.778
316.884
316.75
317.034
317.976
323.104
348.818
433.179
433.221
348.988
323.561
318.535
317.604
317.304
317.261
317.467
317.887
320.433
340.094
421.815
423.392
341.19
320.801
318.128
317.68
317.321
318.075
318.17
318.495
321.409
343.982
430.553
419.501
337.271
320.215
318.414
318.148
317.953
318.302
318.425
318.603
319.758
332.881
410.447
414.191
334.857
320.273
318.959
318.807
318.685
318.861
318.971
319.149
321.16
340.123
424.792
432.478
345.5
322.276
319.345
319.125
319.084
318.19
318.238
318.466
321.299
343.996
430.928
423.362
338.705
319.603
317.484
317.312
317.268
316.234
316.311
316.462
317.956
333.272
414.209
414.345
333.661
318.097
316.58
316.466
316.449
315.17
314.44
313.775
313.183
312.834
312.758
313.224
314.581
319.817
340.927
412.722
413.155
340.52
318.94
314.257
313.202
313.412
314.065
317.746
340.359
419.697
422.552
338.005
316.951
314.344
313.939
314.582
314.855
316.763
334.651
418.99
415.709
333.065
317.036
315.455
315.274
315.435
315.618
317.676
337.403
426.195
428.683
343.878
319.931
315.47
314.779
314.103
314.809
319.334
344.027
427.027
416.938
339.181
317.848
314.132
313.531
313.265
313.983
317.323
334
402.418
397.682
331.662
316.977
313.944
313.23
313.035
313.089
313.393
313.964
314.639
315.393
315.501
314.895
314.333
313.79
313.382
313.239
312.966
313.101
313.5
314.048
314.605
315.187
314.763
314.249
313.701
313.163
312.784
312.662
312.127
312.169
312.403
312.875
313.455
314.101
313.146
312.24
311.848
311.58
311.452
311.428
311.269
311.328
311.525
311.877
312.341
312.913
313.937
312.634
311.903
311.455
311.246
311.203
310.943
310.983
311.159
311.533
312.123
313.076
312.749
311.832
311.281
310.942
310.787
310.754
310.527