/*--------------------------------*- C++ -*----------------------------------*\
| =========                 |                                                 |
| \\      /  F ield         | OpenFOAM: The Open Source CFD Toolbox           |
|  \\    /   O peration     | Version:  2212                                  |
|   \\  /    A nd           | Website:  www.openfoam.com                      |
|    \\/     M anipulation  |                                                 |
\*---------------------------------------------------------------------------*/
FoamFile
{
    version     2.0;
    format      ascii;
    arch        "LSB;label=32;scalar=64";
    class       volScalarField;
    location    "370";
    object      T;
}
// * * * * * * * * * * * * * * * * * * * * * * * * * * * * * * * * * * * * * //

dimensions      [0 0 0 1 0 0 0];

internalField   nonuniform List<scalar> 
248319
(
311.043
310.998
310.554
310.315
310.097
309.963
309.918
309.911
309.963
310.124
310.353
310.613
311.028
310.863
310.355
310.115
309.998
309.943
309.943
310.222
310.252
310.333
310.429
310.539
310.702
310.681
310.542
310.491
310.464
310.422
310.401
310.157
310.141
310.16
310.191
310.267
310.788
311.214
310.817
310.518
310.283
310.165
310.14
310.262
310.33
310.505
310.736
310.976
311.339
311.486
311.249
311.004
310.748
310.549
310.476
310.404
310.456
310.61
310.815
311.033
311.399
311.176
310.752
310.554
310.361
310.203
310.141
310.066
310.112
310.251
310.44
310.645
311.317
311.096
310.472
310.223
310.014
309.878
309.835
309.882
309.879
309.927
310.039
310.319
310.935
310.795
310.62
310.491
310.362
310.247
310.193
310.541
310.64
310.76
310.884
311.018
311.165
311.119
310.964
310.847
310.738
310.623
310.538
310.604
310.703
310.829
310.96
311.107
311.272
311.297
310.988
310.713
310.446
310.261
310.204
310.419
310.485
310.666
310.897
311.126
311.438
311.578
311.337
311.115
310.883
310.685
310.609
310.735
310.814
311.009
311.225
311.436
311.661
311.593
311.365
311.156
310.927
310.715
310.626
310.562
310.627
310.822
311.065
311.317
311.582
311.717
311.209
310.938
310.696
310.515
310.449
310.293
310.343
310.49
310.69
310.908
311.504
311.701
310.766
310.539
310.354
310.22
310.17
309.932
309.976
310.103
310.283
310.498
311.465
311.156
310.302
310.061
309.881
309.773
309.74
309.826
309.828
309.875
309.968
310.191
310.953
310.863
310.662
310.504
310.345
310.201
310.125
310.454
310.573
310.729
310.898
311.076
311.27
311.567
311.301
311.076
310.857
310.648
310.48
310.549
310.691
310.855
311.021
311.19
311.366
311.482
311.26
311.072
310.884
310.694
310.526
310.552
310.671
310.812
310.958
311.119
311.299
311.288
310.976
310.71
310.45
310.254
310.189
310.383
310.446
310.619
310.846
311.083
311.432
311.6
311.304
311.053
310.812
310.621
310.551
310.657
310.731
310.924
311.154
311.398
311.679
311.68
311.413
311.196
310.989
310.803
310.722
310.799
310.881
311.063
311.253
311.439
311.639
311.609
311.394
311.211
311.01
310.809
310.714
310.664
310.753
310.974
311.218
311.447
311.659
311.878
311.493
311.162
310.866
310.64
310.558
310.452
310.512
310.712
311.048
311.514
312.107
311.884
311.068
310.765
310.536
310.387
310.337
310.375
310.433
310.617
310.918
311.303
312.212
312.003
310.738
310.477
310.281
310.15
310.103
309.806
309.846
309.969
310.158
310.413
311.81
311.443
310.202
309.937
309.779
309.693
309.668
309.77
309.773
309.818
309.899
310.108
311.124
311.059
310.78
310.568
310.358
310.176
310.079
310.391
310.563
310.793
311.04
311.292
311.556
311.912
311.564
311.25
310.942
310.651
310.425
310.429
310.687
311.017
311.368
311.729
312.104
311.724
311.437
311.179
310.925
310.677
310.472
310.456
310.682
310.951
311.227
311.507
311.8
311.523
311.294
311.096
310.894
310.687
310.501
310.499
310.628
310.777
310.928
311.093
311.283
311.241
310.919
310.658
310.406
310.214
310.149
310.322
310.382
310.545
310.765
311.006
311.385
311.585
311.241
310.973
310.729
310.549
310.487
310.597
310.663
310.852
311.093
311.36
311.688
311.719
311.421
311.177
310.949
310.759
310.685
310.774
310.851
311.032
311.233
311.439
311.664
311.591
311.374
311.199
311.024
310.858
310.778
310.835
310.914
311.075
311.234
311.384
311.543
311.554
311.373
311.221
311.047
310.864
310.773
310.724
310.814
311.022
311.242
311.446
311.633
311.839
311.552
311.246
310.953
310.72
310.631
310.517
310.586
310.821
311.257
311.74
312.066
312.324
312.097
311.836
311.406
311.012
310.871
310.602
310.694
311.004
311.496
311.882
312.392
312.798
312.416
312.193
311.908
311.569
311.402
310.9
311.007
311.297
311.673
311.971
312.666
312.49
311.199
310.831
310.54
310.337
310.263
309.74
309.771
309.885
310.114
310.478
312.259
311.927
310.182
309.874
309.731
309.662
309.642
309.742
309.75
309.802
309.888
310.119
311.59
311.537
311.135
310.801
310.478
310.209
310.065
310.397
310.689
311.071
311.463
311.833
312.173
312.578
312.135
311.689
311.224
310.777
310.434
310.416
310.772
311.247
311.756
312.263
312.767
312.776
312.219
311.693
311.18
310.713
310.371
310.389
310.658
311.003
311.374
311.762
312.176
312.181
311.742
311.347
310.971
310.625
310.354
310.414
310.65
310.929
311.216
311.511
311.823
311.525
311.294
311.09
310.881
310.664
310.465
310.446
310.582
310.736
310.89
311.058
311.255
311.186
310.846
310.591
310.349
310.165
310.103
310.26
310.32
310.472
310.681
310.918
311.331
311.552
311.165
310.897
310.66
310.492
310.435
310.56
310.621
310.801
311.049
311.331
311.703
311.783
311.448
311.182
310.939
310.744
310.673
310.779
310.861
311.054
311.274
311.501
311.754
311.618
311.459
311.308
311.134
310.957
310.868
310.839
310.917
311.076
311.233
311.375
311.509
311.437
311.289
311.17
311.039
310.901
310.828
310.859
310.93
311.063
311.184
311.292
311.4
311.481
311.34
311.216
311.065
310.898
310.812
310.749
310.826
311.015
311.214
311.394
311.555
311.713
311.489
311.219
310.95
310.737
310.658
310.534
310.6
310.828
311.269
311.694
311.894
312.096
312.058
311.883
311.567
311.232
311.107
311.847
311.928
312.127
312.288
312.341
312.322
312.639
312.468
312.32
312.095
311.856
311.75
312.197
312.284
312.495
312.679
312.818
313.016
313.219
312.826
312.61
312.379
312.153
312.047
311.67
311.803
312.065
312.302
312.523
313.159
313.037
311.985
311.637
311.251
310.957
310.836
309.83
309.867
310.029
310.372
310.894
312.75
312.314
310.213
309.893
309.763
309.701
309.685
309.815
309.837
309.922
310.04
310.247
312.179
312.306
311.889
311.403
310.864
310.396
310.134
310.542
311.046
311.653
312.194
312.586
312.866
313.283
312.87
312.381
311.762
311.095
310.557
310.501
311.011
311.685
312.357
312.956
313.496
313.515
312.817
312.174
311.499
310.865
310.412
310.329
310.723
311.302
311.948
312.594
313.376
312.678
312.115
311.591
311.088
310.638
310.313
310.263
310.567
310.992
311.472
311.977
312.528
312.128
311.694
311.299
310.924
310.578
310.308
310.369
310.611
310.895
311.187
311.487
311.807
311.511
311.277
311.069
310.856
310.633
310.425
310.396
310.537
310.695
310.848
311.015
311.213
311.134
310.77
310.521
310.287
310.113
310.055
310.206
310.265
310.409
310.608
310.838
311.282
311.527
311.107
310.843
310.615
310.455
310.402
310.553
310.613
310.789
311.034
311.322
311.741
311.883
311.514
311.226
310.97
310.768
310.696
310.832
310.92
311.128
311.366
311.611
311.883
311.736
311.589
311.433
311.244
311.047
310.949
311.052
311.153
311.353
311.548
311.715
311.859
311.581
311.449
311.322
311.172
311.011
310.927
310.859
310.928
311.059
311.18
311.284
311.377
311.258
311.157
311.078
310.986
310.881
310.821
310.839
310.901
311.006
311.095
311.171
311.238
311.381
311.278
311.178
311.044
310.893
310.815
310.77
310.844
311.026
311.208
311.349
311.473
311.597
311.396
311.152
310.915
310.728
310.662
310.531
310.589
310.784
311.166
311.568
311.731
311.889
311.973
311.869
311.597
311.282
311.164
311.904
311.98
312.15
312.248
312.223
312.067
312.284
312.432
312.492
312.455
312.318
312.241
312.209
312.286
312.45
312.546
312.567
312.578
312.889
312.841
312.824
312.762
312.623
312.537
312.557
312.647
312.845
313.014
313.178
313.415
313.722
313.276
313.024
312.789
312.565
312.459
312.271
312.369
312.563
312.779
313.012
313.687
313.595
312.646
312.401
312.142
311.861
311.726
310.319
310.408
310.704
311.214
311.772
313.313
312.763
310.513
310.143
309.99
309.908
309.884
310.102
310.155
310.326
310.525
310.669
312.624
312.839
312.667
312.269
311.545
310.798
310.356
310.896
311.658
312.467
312.959
313.246
313.488
313.986
313.551
313.131
312.503
311.622
310.853
310.722
311.408
312.289
313.053
313.626
314.223
314.198
313.366
312.709
311.943
311.15
310.58
310.453
310.917
311.595
312.303
312.956
314.029
313.785
312.498
311.895
311.276
310.714
310.339
310.24
310.58
311.095
311.691
312.302
313.18
312.955
311.995
311.439
310.911
310.464
310.172
310.2
310.48
310.875
311.324
311.8
312.332
312.037
311.615
311.23
310.862
310.523
310.258
310.323
310.567
310.852
311.145
311.448
311.773
311.481
311.249
311.039
310.824
310.597
310.383
310.347
310.493
310.656
310.808
310.975
311.178
311.09
310.699
310.454
310.227
310.064
310.008
310.162
310.222
310.361
310.552
310.775
311.247
311.529
311.077
310.818
310.597
310.443
310.391
310.578
310.637
310.812
311.057
311.344
311.799
311.993
311.603
311.303
311.036
310.827
310.753
310.915
311.012
311.233
311.48
311.728
311.995
311.844
311.719
311.571
311.377
311.165
311.055
311.169
311.29
311.531
311.768
311.971
312.145
313.664
313.12
312.569
312.03
311.609
311.454
311.32
311.463
311.833
312.292
312.759
313.217
312.774
312.38
312.008
311.638
311.326
311.196
311.113
311.229
311.494
311.792
312.081
312.364
312.137
311.882
311.645
311.392
311.158
311.052
310.983
311.087
311.304
311.532
311.741
311.94
311.853
311.592
311.374
311.154
310.955
310.875
310.766
310.818
310.988
311.22
311.522
312.127
311.489
311.443
311.219
310.989
310.805
310.739
310.697
310.782
311.105
311.539
311.707
311.592
311.701
311.891
311.957
311.905
311.723
311.597
312.07
312.124
312.185
312.122
311.986
311.83
312.008
312.136
312.285
312.399
312.395
312.351
312.672
312.691
312.652
312.521
312.376
312.241
312.547
312.658
312.735
312.745
312.652
312.585
312.948
313.001
313.069
313.043
312.97
312.89
313.235
313.17
313.144
313.092
312.973
312.892
312.933
313.029
313.226
313.405
313.601
313.871
314.305
313.777
313.468
313.204
312.967
312.856
312.724
312.811
313.009
313.246
313.523
314.263
314.168
313.196
312.947
312.717
312.51
312.408
311.279
311.414
311.789
312.225
312.598
313.903
313.336
311.318
310.868
310.65
310.528
310.489
311.052
311.102
311.27
311.405
311.456
313.217
313.421
313.293
313.161
312.879
312.28
311.73
312.395
313.005
313.417
313.682
313.909
314.15
314.73
314.277
313.883
313.476
312.896
312.174
311.821
312.536
313.295
313.855
314.362
314.994
314.928
314.077
313.526
312.87
312.11
311.496
311.212
311.71
312.381
313.04
313.621
314.745
314.46
313.089
312.521
311.92
311.357
310.967
310.775
311.087
311.537
312.03
312.525
314.067
313.45
312.01
311.489
310.977
310.529
310.233
310.15
310.37
310.705
311.094
311.514
313.024
312.683
311.652
311.17
310.722
310.346
310.101
310.136
310.391
310.754
311.169
311.608
312.149
311.924
311.516
311.145
310.79
310.462
310.206
310.276
310.519
310.803
311.093
311.395
311.722
311.449
311.215
311.005
310.788
310.558
310.34
310.301
310.452
310.619
310.77
310.935
311.137
311.058
310.636
310.393
310.171
310.018
309.964
310.129
310.19
310.33
310.516
310.733
311.228
311.551
311.076
310.822
310.605
310.455
310.403
310.628
310.687
310.864
311.109
311.395
311.868
312.098
311.702
311.397
311.125
310.908
310.83
311.01
311.116
311.349
311.597
311.835
312.083
311.951
311.847
311.707
311.51
311.285
311.164
311.287
311.429
311.716
312.01
312.275
312.521
314.004
313.461
312.859
312.249
311.775
311.606
311.593
311.703
312.101
312.733
313.448
314.149
313.922
313.12
312.461
311.904
311.55
311.451
311.34
311.44
311.775
312.268
312.837
313.521
313.077
312.533
312.074
311.654
311.345
311.242
311.174
311.276
311.556
311.907
312.27
312.667
312.406
312.076
311.773
311.461
311.203
311.111
311.056
311.143
311.404
311.715
312.014
312.344
312.192
311.933
311.685
311.419
311.168
311.045
310.921
311
311.229
311.558
311.98
312.509
312.861
311.989
311.386
310.978
310.785
310.728
310.648
310.708
310.906
311.286
311.702
312.457
312.902
312.4
312.123
311.839
311.543
311.423
312.11
312.192
312.399
312.668
312.969
313.296
313.608
313.455
313.143
312.827
312.588
312.494
312.882
312.986
313.265
313.604
313.849
313.9
314.204
314.222
314.039
313.71
313.396
313.264
312.991
313.003
312.948
312.815
312.676
312.552
312.959
313.055
313.186
313.309
313.361
313.343
313.3
313.354
313.417
313.395
313.336
313.281
313.645
313.569
313.529
313.469
313.352
313.27
313.32
313.428
313.637
313.837
314.064
314.364
314.899
314.343
313.956
313.645
313.381
313.26
313.152
313.244
313.465
313.741
314.076
314.861
314.761
313.742
313.46
313.214
313.005
312.907
312.236
312.365
312.648
312.951
313.253
314.5
313.974
312.286
311.881
311.599
311.427
311.371
312.305
312.268
312.309
312.344
312.336
313.862
314.035
313.901
313.793
313.683
313.59
313.583
313.75
313.899
314.121
314.35
314.586
314.843
315.502
315.046
314.641
314.256
313.903
313.67
313.532
313.81
314.219
314.687
315.197
315.807
315.796
314.996
314.486
314.024
313.618
313.317
313.106
313.384
313.765
314.176
314.635
315.665
315.426
314.224
313.841
313.505
313.19
312.955
312.962
313.085
313.284
313.517
313.8
315.087
314.751
313.529
313.347
313.215
313.118
313.08
310.854
311.065
311.382
311.742
312.114
313.645
313.43
312.177
311.968
311.79
311.652
311.59
310.221
310.359
310.587
310.859
311.162
312.578
312.336
311.248
310.866
310.518
310.226
310.034
310.075
310.301
310.625
310.997
311.39
311.959
311.789
311.4
311.047
310.708
310.394
310.151
310.227
310.468
310.747
311.033
311.331
311.656
311.413
311.179
310.968
310.751
310.519
310.297
310.257
310.414
310.584
310.737
310.902
311.106
311.038
310.584
310.34
310.122
309.976
309.925
310.107
310.171
310.314
310.498
310.712
311.225
311.587
311.098
310.848
310.636
310.486
310.434
310.694
310.755
310.933
311.177
311.459
311.942
312.183
311.795
311.494
311.221
310.998
310.916
311.106
311.221
311.46
311.701
311.921
312.135
312.034
311.953
311.826
311.632
311.399
311.267
311.397
311.56
311.893
312.241
312.559
312.858
314.232
313.652
313.014
312.367
311.872
311.697
311.647
311.761
312.176
312.828
313.534
314.204
314.005
313.257
312.619
312.094
311.892
312.03
314.424
318.074
328.703
362.732
440.801
433.046
349.363
321.182
314.793
313.003
312.244
312.739
315.363
334.541
418.391
401.216
325.682
313.757
312.694
312.594
313.194
313.196
313.758
322.312
390.186
393.481
323.276
314.408
313.891
313.928
315.408
315.329
316.455
330.578
410.991
409.661
330.163
316.48
315.348
315.329
315.349
315.3
315.321
315.403
316.389
328.673
405.584
391.586
322.637
314.383
313.896
313.882
313.142
313.255
313.964
323.244
395.098
407.639
326.933
314.069
312.829
312.563
312.45
313.144
316.074
336.936
427.434
443.205
355.945
325.585
317.234
314.828
318.963
324.738
338.835
374.773
453.61
455.947
377.634
338.865
323.876
317.837
314.556
317.303
326.512
360.018
447.223
433.111
341.171
317.008
313.336
312.509
312.577
312.907
314.576
330.297
415.459
402.986
325.757
314.257
313.269
313.095
313.765
313.816
314.513
324.274
396.959
403.477
327.782
316.337
315.439
315.338
315.275
313.742
313.015
312.413
311.981
312.001
312.571
311.563
311.631
311.918
312.443
313.096
313.797
313.627
312.879
312.264
311.778
311.505
311.432
311.315
311.377
311.62
312.052
312.596
313.305
312.941
312.338
311.885
311.508
311.282
311.22
311.17
311.225
311.418
311.724
312.076
312.615
312.422
311.966
311.673
311.406
311.215
311.146
311.171
311.276
311.534
311.849
312.161
312.475
312.324
311.924
311.621
311.315
311.092
311.026
310.943
310.993
311.176
311.464
311.83
312.614
312.679
312.012
311.566
311.231
311.009
310.941
310.763
310.808
310.972
311.278
311.788
313.032
313.486
312.542
312.084
311.588
311.252
311.155
311.359
311.485
311.851
312.301
312.693
313.197
313.528
313.305
312.958
312.583
312.308
312.208
312.67
312.771
313.073
313.469
313.778
313.832
314.175
314.187
313.949
313.546
313.198
313.072
313.501
313.64
314.026
314.433
314.645
314.608
315.175
315.181
314.963
314.536
314.102
313.928
313.693
313.838
314.184
314.507
314.639
314.534
314.951
315.087
315.016
314.706
314.325
314.144
313.779
313.8
313.773
313.68
313.576
313.457
313.762
313.786
313.823
313.826
313.75
313.684
313.691
313.772
313.901
313.98
314.043
314.121
314.898
314.561
314.309
314.082
313.852
313.722
313.698
313.824
314.13
314.493
314.926
315.508
315.483
314.65
314.27
313.951
313.695
313.584
313.397
313.488
313.707
313.977
314.293
315.373
315.117
313.851
313.545
313.256
312.999
312.887
312.247
312.324
312.54
312.797
313.1
314.612
314.516
313.489
313.368
313.244
313.144
313.146
314.173
314.19
314.296
314.416
314.534
314.659
315.538
315.233
314.984
314.742
314.508
314.341
314.329
314.596
314.976
315.384
315.806
316.247
316.573
315.976
315.454
314.962
314.523
314.235
314.142
314.402
314.832
315.33
315.857
316.606
316.518
315.553
315.073
314.63
314.261
314.049
313.982
314.124
314.399
314.744
315.136
316.289
315.944
314.73
314.445
314.212
314.037
313.961
314.064
314.06
314.13
314.246
314.415
315.568
314.95
314.321
314.256
314.23
314.233
314.284
313.442
313.397
313.402
313.44
313.524
314.443
313.01
312.851
312.841
312.835
312.832
312.842
312.126
312.114
312.146
312.202
312.28
312.967
312.334
311.307
311.149
311.02
310.927
310.9
310.11
310.217
310.4
310.623
310.874
311.93
311.731
311.099
310.773
310.467
310.202
310.016
310.094
310.319
310.615
310.934
311.265
311.64
311.575
311.253
310.964
310.685
310.412
310.176
310.254
310.48
310.714
310.934
311.15
311.376
311.084
310.866
310.704
310.549
310.376
310.214
309.889
309.939
310.08
310.295
310.544
311.028
311.232
310.709
310.497
310.312
310.162
310.093
310.481
310.532
310.68
310.888
311.13
311.624
312.005
311.522
311.247
311.007
310.828
310.765
311.001
311.085
311.31
311.575
311.864
312.231
312.12
311.947
311.765
311.545
311.311
311.189
311.355
311.493
311.718
311.886
311.976
312.003
313.046
312.77
312.445
312.07
311.7
311.509
311.719
311.906
312.403
313.047
313.698
314.338
314.031
313.93
313.872
314.555
325.566
403.592
405.017
415.202
425.206
426.117
424.163
349.797
346.441
338.736
330.168
325.746
313.977
314.159
315.947
320.094
323.344
315.612
314.075
312.685
312.682
313.147
313.168
312.601
312.226
312.521
313.077
311.885
311.893
312.166
312.678
313.279
313.262
312.692
312.199
311.895
311.816
312.326
312.222
312.215
312.567
313.083
313.1
312.728
312.723
313.329
313.715
318.368
317.982
316.588
315.468
315.117
336.226
339.367
340.511
339.325
337.252
408.052
414.412
425.187
427.668
423.775
419.867
333.573
315.279
313.843
313.883
314.019
315.579
315.323
315.496
318.676
340.045
425.876
414.433
331.618
316.492
315.301
315.416
315.566
315.529
316.768
316.823
317.049
319.492
339.565
422.772
427.055
341.143
319.764
317.117
316.861
316.812
316.686
316.803
317.04
319.023
337.069
420.205
412.078
332.726
318.375
317.051
316.885
316.777
317.184
317.268
317.397
318.567
332.011
409.701
402.722
328.051
316.691
315.788
315.677
315.592
313.898
313.958
314.071
314.899
325.476
399.197
403.427
413.563
428.366
442.998
451.864
372.297
356.365
339.553
330.289
326.45
314.528
314.729
316.677
323.356
332.879
320.207
315.782
313.248
313.033
313.446
313.23
312.678
312.473
313.531
315.64
312.145
311.928
312.042
312.496
313.104
313.159
312.512
311.987
311.678
311.591
311.444
311.52
311.791
312.262
312.865
313.609
313.175
312.458
311.942
311.55
311.334
311.274
311.171
311.219
311.398
311.721
312.135
312.757
312.481
311.952
311.619
311.34
311.173
311.126
311.107
311.152
311.308
311.543
311.811
312.31
312.756
311.78
311.44
311.186
311.035
310.991
311.014
311.061
311.232
311.518
311.912
312.845
312.843
312.072
311.607
311.278
311.074
311.014
310.837
310.873
311.003
311.227
311.559
313.278
312.876
311.523
311.169
310.939
310.807
310.768
310.996
311.055
311.266
311.657
312.14
313.398
314.113
312.998
312.654
312.323
312.05
311.942
312.14
312.256
312.519
312.866
313.209
314.009
314.613
313.738
313.403
313.044
312.776
312.678
313.127
313.227
313.522
313.903
314.244
315.325
316.154
314.815
314.424
314.004
313.668
313.545
314.005
314.135
314.517
315
315.481
317.037
317.795
316.274
315.661
315.087
314.64
314.477
314.411
314.601
315.088
315.572
315.862
315.907
316.801
316.645
316.26
315.702
315.151
314.921
314.681
314.88
315.302
315.612
315.642
315.503
314.054
314.163
314.236
314.288
314.274
314.226
314.146
314.216
314.318
314.348
314.335
314.313
314.656
314.543
314.464
314.363
314.212
314.112
314.19
314.33
314.591
314.851
315.132
315.469
316.12
315.514
315.043
314.641
314.294
314.139
314.058
314.17
314.456
314.815
315.238
316.134
316.014
314.889
314.532
314.225
313.98
313.875
313.458
313.561
313.811
314.104
314.425
315.74
315.25
313.76
313.465
313.229
313.016
312.927
313.876
313.887
314.002
314.098
314.082
315.134
315.276
315.1
314.976
314.85
314.737
314.707
314.96
315.152
315.407
315.662
315.919
316.191
316.912
316.463
316.039
315.619
315.218
314.923
314.867
315.188
315.656
316.162
316.679
317.234
317.281
316.568
316.045
315.532
315.074
314.778
314.708
314.94
315.329
315.78
316.25
317.183
316.928
315.834
315.453
315.106
314.817
314.655
314.661
314.728
314.893
315.109
315.368
316.517
316.143
315.095
314.943
314.839
314.774
314.772
314.786
314.735
314.723
314.729
314.75
314.959
311.132
311.977
312.062
312.091
312.093
312.081
312.649
312.658
312.665
312.657
312.619
312.214
309.59
310.322
310.378
310.381
310.355
310.311
311.109
311.157
311.19
311.201
311.177
310.748
311.697
311.583
311.558
311.526
311.491
311.46
311.132
311.14
311.18
311.235
311.306
311.879
311.614
310.811
310.677
310.565
310.482
310.447
310.014
310.133
310.312
310.52
310.745
311.435
311.487
311.081
310.784
310.499
310.235
310.036
310.127
310.356
310.623
310.895
311.175
311.479
311.334
311.097
310.882
310.663
310.43
310.205
310.184
310.353
310.534
310.694
310.858
311.066
311.023
310.51
310.254
310.04
309.904
309.85
310.091
310.159
310.316
310.502
310.709
311.24
311.656
311.165
310.931
310.729
310.581
310.525
310.836
310.895
311.07
311.301
311.562
312.046
312.237
311.887
311.62
311.372
311.153
311.066
311.26
311.377
311.595
311.783
311.925
312.045
311.847
311.876
311.846
311.73
311.542
311.411
311.615
311.837
312.237
312.611
312.906
313.12
314.352
313.699
313.058
312.431
311.931
311.722
311.752
311.978
312.483
313.09
313.71
314.338
313.99
313.819
314.182
318.637
344.706
431.962
432.562
427.811
414.414
399.463
394.601
327.856
330.367
335.519
341.812
345.082
317.448
316.118
315.771
315.405
314.945
312.538
312.606
312.572
312.724
313.101
313.002
312.537
312.193
312.023
311.946
311.779
311.903
312.228
312.7
313.243
313.201
312.684
312.253
311.931
311.788
311.824
311.944
312.154
312.527
313.36
315.202
313.319
312.457
312.237
312.064
313.437
313.993
315.155
318.627
323.617
353.915
343.893
332.415
325.861
323.792
390.373
394.524
411.263
425.697
435.163
441.05
361.137
328.986
318.393
315.175
314.126
316.1
318.301
323.075
335.714
368.437
444.942
435.61
351.12
323.42
316.727
315.471
315.559
316.92
317.588
319.879
328.609
358.986
441.208
432.28
347.747
322.652
317.725
316.932
316.794
316.73
316.793
316.987
319.283
338.813
421.756
422.518
341.029
320.744
318.103
317.782
317.662
317.719
317.866
318.214
321.078
342.375
424.41
432.868
346.094
321.763
318.404
318.041
317.945
317.816
317.976
318.253
320.439
339.604
423.439
413.628
334.239
319.631
318.268
318.094
317.978
318.352
318.444
318.584
319.896
334.401
413.406
422.172
338.64
320.608
318.744
318.59
318.509
317.436
317.483
317.599
319.142
335.257
417.07
409.036
330.517
317.223
316.1
316.016
315.98
314.284
313.397
312.714
312.179
311.925
311.923
314.195
317.857
329.633
366.988
445.066
440.038
355.369
322.674
315.135
313.129
312.57
313.357
317.078
341.534
430.881
419.332
332.832
315.235
313.269
312.893
313.519
313.744
315.041
328.934
410.448
406.578
328.012
315.459
314.424
314.321
314.599
314.727
316.172
331.877
416.304
423.598
334.512
315.991
314.051
313.775
313.109
313.581
316.468
339.486
431.527
436.335
347.355
318.483
313.651
312.735
312.994
314.918
322.636
354.39
434.85
434.045
357.653
326.058
316.323
313.416
311.948
311.999
312.292
312.871
313.614
314.522
314.593
313.904
313.204
312.549
312.071
311.889
311.824
311.996
312.456
313.098
313.797
314.473
313.944
313.163
312.511
311.988
311.658
311.551
311.309
311.373
311.601
312.001
312.535
313.229
312.609
312.101
311.74
311.446
311.256
311.192
311.214
311.299
311.519
311.835
312.215
312.662
312.368
311.923
311.621
311.375
311.213
311.157
311.192
311.27
311.465
311.737
312.061
312.459
312.935
312.096
311.624
311.307
311.12
311.064
310.943
310.989
311.157
311.485
312.106
313.746
313.212
311.456
311.174
310.984
310.871
310.837
310.842
310.878
310.997
311.198
311.488
313.308
314.072
311.609
311.215
310.98
310.852
310.812
310.882
310.93
311.092
311.399
311.913
313.866
314.76
312.929
312.429
311.974
311.683
311.599
312.611
312.705
312.943
313.289
313.724
315.661
314.833
313.591
313.255
312.949
312.73
312.653
313.129
313.215
313.459
313.798
314.172
315.633
316.439
314.796
314.35
313.957
313.673
313.574
314.038
314.149
314.478
314.941
315.474
317.105
317.515
316.182
315.563
315.017
314.634
314.508
315.033
315.168
315.594
316.204
316.845
317.803
318.172
317.096
316.346
315.671
315.166
314.995
315.572
315.754
316.31
317.067
317.78
318.373
317.679
317.497
317.002
316.354
315.743
315.492
315.266
315.496
315.955
316.263
316.27
316.184
314.767
314.904
314.94
314.933
314.854
314.774
314.624
314.714
314.861
314.938
314.956
314.946
315.265
315.139
315.035
314.9
314.715
314.599
314.674
314.834
315.129
315.42
315.719
316.064
316.712
316.119
315.626
315.186
314.801
314.626
314.55
314.675
314.992
315.388
315.842
316.771
316.633
315.482
315.094
314.758
314.493
314.383
314.004
314.108
314.365
314.675
315.019
316.358
315.865
314.352
314.036
313.793
313.577
313.488
314.454
314.47
314.591
314.673
314.615
315.745
315.891
315.706
315.582
315.452
315.328
315.278
315.535
315.751
316.019
316.282
316.542
316.811
317.497
317.08
316.669
316.248
315.835
315.515
315.469
315.811
316.288
316.786
317.276
317.783
317.811
317.158
316.665
316.165
315.701
315.391
315.329
315.567
315.951
316.383
316.822
317.68
317.382
316.378
316.032
315.711
315.438
315.281
315.279
315.339
315.486
315.676
315.904
316.946
316.588
315.637
315.503
315.413
315.358
315.36
315.045
315.003
314.986
314.971
314.939
314.649
310.321
311.237
311.342
311.386
311.401
311.4
309.014
309.039
309.059
309.066
309.045
308.613
308.847
309.472
309.525
309.532
309.518
309.489
308.257
308.312
308.361
308.387
308.367
308.279
308.592
308.89
308.962
308.956
308.913
308.857
309.681
309.75
309.803
309.82
309.773
309.344
310.437
310.558
310.559
310.525
310.469
310.404
310.719
310.759
310.806
310.85
310.89
311.168
311.286
310.732
310.66
310.599
310.552
310.53
310.109
310.168
310.267
310.387
310.524
311.149
311.296
310.836
310.593
310.36
310.144
309.981
310.074
310.292
310.549
310.809
311.075
311.367
311.287
311.056
310.843
310.624
310.388
310.163
310.145
310.32
310.506
310.671
310.837
311.049
311.02
310.482
310.217
310.004
309.872
309.823
310.082
310.158
310.325
310.513
310.717
311.245
311.672
311.187
310.965
310.77
310.626
310.573
310.89
310.949
311.117
311.334
311.58
312.06
312.212
311.879
311.632
311.405
311.199
311.117
311.297
311.406
311.596
311.745
311.851
311.943
311.615
311.701
311.739
311.693
311.556
311.448
311.701
311.944
312.353
312.707
312.954
313.104
312.95
312.873
312.696
312.393
312.006
311.766
311.804
312.041
312.543
313.121
313.694
314.261
314.049
313.566
313.061
312.531
312.056
311.843
311.835
312.022
312.393
312.858
313.584
315.16
316.402
313.763
312.807
312.352
311.998
311.838
311.806
311.895
312.125
312.713
314.382
318.76
313.857
312.1
311.872
311.799
312.133
312.142
312.695
316.958
325.502
340.805
327.154
317.712
315.488
316.129
343.944
340.546
347.958
361.271
376.84
453.5
447.181
439.756
429.214
432.426
451.226
446.598
449.272
451.689
454.63
380.371
371.962
364.856
362.562
369.096
325.906
323.47
326.023
334.626
345.591
330.613
321.045
315.095
313.46
313.711
311.956
311.987
312.617
315.774
322.785
315.915
313.048
312.103
311.875
311.832
311.926
312.008
312.275
312.898
314.635
320.882
325.675
339.971
347.68
359.349
386.183
455.449
455.842
387.443
364.731
356.115
349.755
332.415
326.323
341.611
355.631
377.393
412.228
467.69
456.012
388.808
353.609
335.492
326.066
318.427
320.661
331.025
341.57
360.871
396.762
461.162
450.223
376.287
342.187
327.825
321.758
317.994
319.056
323.329
329.842
344.804
379.436
452.297
442.93
361.933
330.858
321.473
318.794
317.839
317.688
317.924
318.865
324.115
349.925
433.611
433.133
349.642
324.459
319.414
318.464
318.124
318.122
318.322
318.7
321.194
340.663
421.739
423.413
341.884
321.541
318.885
318.509
318.276
318.716
318.811
319.144
322.185
345.225
431.432
421.621
338.94
320.994
319.042
318.786
318.618
318.873
318.976
319.141
320.386
334.213
412.429
414.696
335.564
320.802
319.456
319.316
319.212
319.35
319.446
319.616
321.603
340.288
424.19
431.487
345.225
322.618
319.789
319.574
319.537
318.675
318.703
318.895
321.521
343.287
429.467
422.024
338.058
319.687
317.751
317.632
317.619
316.217
316.246
316.328
317.67
332.552
413.395
413.41
332.98
317.884
316.529
316.504
316.581
314.835
313.876
313.098
312.459
312.089
311.988
312.558
314.142
319.831
341.595
413.423
414.47
341.648
318.939
313.747
312.517
312.658
313.35
317.422
341.619
421.738
424.899
338.81
316.354
313.571
313.192
313.941
314.16
316.081
334.614
420.826
416.353
332.538
316.428
314.944
314.848
315.041
315.133
317.114
337.12
426.846
430.025
344.249
319.51
314.834
314.123
313.303
314.052
318.946
344.859
428.5
417.997
339.968
317.438
313.335
312.682
312.416
313.226
316.911
334.329
402.986
397.986
331.629
316.461
313.165
312.349
312.146
312.233
312.584
313.217
314.047
315.092
315.586
314.685
313.874
313.134
312.578
312.369
312.166
312.35
312.858
313.559
314.331
315.199
314.744
313.99
313.265
312.61
312.143
311.973
311.602
311.68
311.981
312.512
313.206
314.113
313.329
312.343
311.912
311.59
311.39
311.321
311.322
311.43
311.703
312.098
312.588
313.193
314.478
313.109
312.306
311.76
311.428
311.318
311.237
311.329
311.611
312.068
312.708
313.687
313.481