/*--------------------------------*- C++ -*----------------------------------*\
| =========                 |                                                 |
| \\      /  F ield         | OpenFOAM: The Open Source CFD Toolbox           |
|  \\    /   O peration     | Version:  2212                                  |
|   \\  /    A nd           | Website:  www.openfoam.com                      |
|    \\/     M anipulation  |                                                 |
\*---------------------------------------------------------------------------*/
FoamFile
{
    version     2.0;
    format      ascii;
    arch        "LSB;label=32;scalar=64";
    class       volScalarField;
    location    "290";
    object      p;
}
// * * * * * * * * * * * * * * * * * * * * * * * * * * * * * * * * * * * * * //

dimensions      [0 2 -2 0 0 0 0];

internalField   nonuniform List<scalar> 
248319
(
0
0.0192807
0.0402701
0.0499119
0.0579516
0.0646543
0.0702481
0.109359
0.103293
0.0960199
0.0872975
0.0768384
0.0510493
0.0498377
0.0761405
0.0872739
0.0965701
0.104328
0.110799
0.0812599
0.07639
0.0706016
0.0636737
0.0553478
0.0330955
0.013721
0.0280081
0.0342208
0.0395207
0.0440854
0.0480592
0.062621
0.0577834
0.051986
0.0450474
0.0367391
0.0196804
-0.0539518
-0.0471955
-0.0434509
-0.0403274
-0.0377069
-0.0355312
-0.0212306
-0.0246984
-0.0288569
-0.0338347
-0.0398
-0.050761
-0.0555466
-0.0402196
-0.0334773
-0.0278622
-0.0231818
-0.0192651
0.0634664
0.0574269
0.0501784
0.0414874
0.031066
0.00054287
0.0309082
0.0593115
0.069284
0.0775984
0.0845262
0.0903053
0.100137
0.0944897
0.0877147
0.0795877
0.0698441
0.035903
0.0499511
0.0749742
0.0847373
0.0928745
0.0996584
0.105313
0.109529
0.103005
0.0951843
0.0858079
0.0745685
0.0473146
0.0190781
0.0397501
0.046377
0.0519032
0.056586
0.0606347
-0.0356291
-0.0383594
-0.0410896
-0.0438177
-0.0465477
-0.0535707
-0.051502
-0.0438543
-0.0414659
-0.0392256
-0.0370876
-0.035023
-0.140385
-0.140794
-0.141185
-0.141553
-0.141892
-0.145267
-0.14483
-0.141953
-0.140974
-0.14016
-0.139479
-0.138907
-0.132515
-0.133793
-0.135338
-0.137177
-0.139386
-0.144444
-0.145908
-0.139379
-0.136706
-0.134477
-0.132607
-0.131067
-0.133989
-0.135627
-0.137605
-0.139965
-0.142809
-0.150194
-0.0695819
-0.0525798
-0.0457595
-0.0400738
-0.0353406
-0.0313783
0.0473154
0.040695
0.0327543
0.0232233
0.0117969
-0.0194644
-0.00915997
0.0315409
0.045277
0.0567302
0.0662809
0.0742432
0.0901746
0.0833693
0.0752086
0.0654172
0.0536743
0.0104136
0.00965561
0.0523149
0.0641526
0.0740194
0.0822427
0.0890989
0.0978801
0.0922989
0.085602
0.077565
0.0679229
0.03448
0.0489435
0.0735214
0.0833199
0.091484
0.0982872
0.103954
0.109476
0.102782
0.0947548
0.0851321
0.0735955
0.0456362
0.0147865
0.0354127
0.0421981
0.0479111
0.0527927
0.0570391
-0.0392358
-0.0419518
-0.0446697
-0.0473879
-0.0501088
-0.0586921
-0.147623
-0.143315
-0.142596
-0.141878
-0.14116
-0.140442
-0.139441
-0.140145
-0.140844
-0.141543
-0.142242
-0.146189
-0.244002
-0.242355
-0.242281
-0.242208
-0.242135
-0.242061
-0.242967
-0.242955
-0.242921
-0.24286
-0.242763
-0.24376
-0.243301
-0.242397
-0.242272
-0.242166
-0.242082
-0.242014
-0.23868
-0.239002
-0.239383
-0.239849
-0.2404
-0.242612
-0.242867
-0.239814
-0.239094
-0.238491
-0.237992
-0.237566
-0.238124
-0.238592
-0.239156
-0.239824
-0.240625
-0.244231
-0.245661
-0.241501
-0.240524
-0.239716
-0.239031
-0.238473
-0.136218
-0.138062
-0.14028
-0.142935
-0.146123
-0.154321
-0.077394
-0.0596784
-0.0525246
-0.0465591
-0.0415939
-0.0374477
0.034221
0.0274437
0.0193098
0.0095456
-0.00215613
-0.0328425
-0.0252824
0.0126344
0.0266656
0.0383644
0.0481177
0.0562452
0.0568229
0.0485552
0.0386321
0.0267283
0.0124476
-0.024732
-0.00913214
0.0306863
0.0447078
0.0563942
0.0661365
0.0742575
0.0739282
0.0657263
0.0558853
0.0440794
0.02991
-0.00976067
0.0087241
0.0514107
0.0634103
0.0734076
0.0817401
0.0886849
0.0975764
0.0919169
0.0851278
0.0769791
0.0672027
0.0335557
0.0480728
0.0729859
0.0829144
0.0911875
0.0980827
0.103826
0.109426
0.10262
0.0944576
0.0846721
0.0729394
0.0445341
0.0132918
0.0339999
0.0409727
0.0468594
0.0518996
0.0562865
-0.0407162
-0.0434394
-0.0461621
-0.0488849
-0.0516093
-0.0603955
-0.148683
-0.144127
-0.143451
-0.142775
-0.142101
-0.141425
-0.242712
-0.242788
-0.242864
-0.242942
-0.243018
-0.245108
-0.244489
-0.242465
-0.242392
-0.24232
-0.242248
-0.242174
-0.343425
-0.343423
-0.343421
-0.34342
-0.343417
-0.344198
-0.343963
-0.343397
-0.343419
-0.343439
-0.343461
-0.343481
-0.344215
-0.344163
-0.344098
-0.344021
-0.343926
-0.344015
-0.343693
-0.343601
-0.343655
-0.343707
-0.343747
-0.343782
-0.341963
-0.34201
-0.342062
-0.342131
-0.342212
-0.343038
-0.342993
-0.341736
-0.341608
-0.341494
-0.341406
-0.341339
-0.341479
-0.341561
-0.341672
-0.341805
-0.341957
-0.343483
-0.343958
-0.34214
-0.341952
-0.341787
-0.341656
-0.341543
-0.340747
-0.340941
-0.341157
-0.341428
-0.341748
-0.344
-0.246045
-0.241076
-0.239698
-0.238553
-0.23759
-0.236804
-0.134503
-0.136821
-0.139609
-0.142949
-0.14695
-0.156211
-0.0818275
-0.0633059
-0.0553399
-0.0486963
-0.0431743
-0.0385521
0.0239822
0.0175033
0.00972622
0.000394496
-0.0107906
-0.0404997
-0.0341714
0.00128182
0.013597
0.0238658
0.032426
0.0395595
0.0405666
0.0333951
0.0247899
0.0144658
0.00208138
-0.0330921
-0.0329115
0.00219092
0.0145625
0.0248741
0.0334692
0.0406303
0.0567219
0.0484184
0.038454
0.0265013
0.0121586
-0.0248776
-0.0250487
0.0120444
0.0263875
0.0383393
0.0483
0.0565993
0.0737319
0.0655188
0.0556628
0.0438333
0.0296413
-0.0101116
0.0082754
0.051115
0.0631514
0.0731767
0.0815354
0.0884985
0.097452
0.0917731
0.0849617
0.0767858
0.0669717
0.0331478
0.0476885
0.0727838
0.082754
0.0910603
0.0979832
0.10375
0.109383
0.102531
0.0943137
0.0844614
0.0726502
0.0440651
0.012737
0.0335611
0.0406027
0.0465488
0.051641
0.0560694
-0.0411991
-0.0439181
-0.0466362
-0.0493551
-0.0520756
-0.061003
-0.14929
-0.144726
-0.144047
-0.143366
-0.142686
-0.142007
-0.243173
-0.243249
-0.243327
-0.243404
-0.24348
-0.245559
-0.344854
-0.344028
-0.344028
-0.344027
-0.344027
-0.344027
-0.343707
-0.343708
-0.343708
-0.343708
-0.343709
-0.344545
-0.444327
-0.444
-0.443999
-0.443999
-0.443999
-0.443999
-0.443835
-0.443835
-0.443834
-0.443833
-0.443831
-0.444119
-0.444025
-0.443868
-0.443882
-0.443896
-0.44391
-0.443922
-0.444477
-0.444447
-0.444408
-0.444361
-0.444306
-0.444159
-0.444023
-0.444161
-0.44422
-0.444274
-0.444319
-0.444353
-0.443419
-0.443419
-0.443413
-0.443407
-0.443402
-0.443659
-0.443738
-0.443291
-0.443288
-0.443273
-0.44327
-0.443254
-0.443612
-0.443634
-0.443631
-0.443652
-0.443668
-0.44418
-0.444746
-0.444204
-0.444169
-0.444154
-0.444143
-0.444121
-0.444409
-0.444434
-0.44447
-0.444505
-0.444561
-0.445185
-0.445384
-0.444561
-0.444445
-0.444343
-0.444268
-0.444203
-0.338867
-0.339234
-0.339655
-0.34017
-0.340784
-0.343677
-0.245833
-0.239643
-0.237462
-0.235643
-0.234116
-0.232857
-0.1243
-0.127553
-0.131467
-0.136161
-0.141797
-0.154692
-0.082501
-0.0606249
-0.0513499
-0.0436147
-0.0371833
-0.0317974
0.016184
0.00998058
0.00253861
-0.00639038
-0.0171004
-0.0445921
-0.0407031
-0.0115099
-0.00120212
0.00739412
0.0145559
0.0205294
0.0212621
0.0153419
0.00824086
-0.000282
-0.010504
-0.0395434
-0.0393218
-0.0103387
-0.000139107
0.00836295
0.0154468
0.0213533
0.0213266
0.0154231
0.00834749
-0.000147574
-0.0103452
-0.0393579
-0.0329675
0.00217995
0.0145413
0.0248438
0.0334265
0.0405791
0.040528
0.0333762
0.0247964
0.0144959
0.00213557
-0.0330653
-0.0251821
0.0119707
0.0263125
0.0382637
0.0482219
0.0565191
0.0736332
0.0654176
0.0555589
0.0437264
0.0295314
-0.0102944
0.00808023
0.0510085
0.0630498
0.0730818
0.0814456
0.0884134
0.0973974
0.0917159
0.0848983
0.0767172
0.0668987
0.0329983
0.047557
0.0727223
0.0827026
0.0910176
0.0979479
0.103721
0.109372
0.102504
0.094268
0.084392
0.0725538
0.0439218
0.0125813
0.0335114
0.0405929
0.046573
0.0516911
0.0561368
-0.0413537
-0.0440822
-0.0468099
-0.0495374
-0.0522662
-0.0612204
-0.149549
-0.144994
-0.144312
-0.14363
-0.142948
-0.142264
-0.243445
-0.243522
-0.243599
-0.243675
-0.243753
-0.245812
-0.345071
-0.344267
-0.344267
-0.344267
-0.344266
-0.344266
-0.444436
-0.444436
-0.444436
-0.444436
-0.444437
-0.44474
-0.444551
-0.44423
-0.444229
-0.444229
-0.444229
-0.444229
-0.543802
-0.543802
-0.543802
-0.543803
-0.543803
-0.54394
-0.543752
-0.54361
-0.543609
-0.543609
-0.543609
-0.543608
-0.543487
-0.543487
-0.543488
-0.543487
-0.543487
-0.54361
-0.543573
-0.543524
-0.543531
-0.543537
-0.543543
-0.54355
-0.543929
-0.543913
-0.543894
-0.543869
-0.543841
-0.543709
-0.543724
-0.543867
-0.543907
-0.543933
-0.543953
-0.543985
-0.543647
-0.543631
-0.54364
-0.543627
-0.54362
-0.543663
-0.543979
-0.543889
-0.543883
-0.543899
-0.543879
-0.543888
-0.544627
-0.544618
-0.544638
-0.544628
-0.544633
-0.544668
-0.545666
-0.545745
-0.545745
-0.545748
-0.545737
-0.545741
-0.547073
-0.547077
-0.547083
-0.547084
-0.54709
-0.546871
-0.548127
-0.548466
-0.548439
-0.548434
-0.548414
-0.548403
-0.549291
-0.549315
-0.549355
-0.549389
-0.549439
-0.549074
-0.445319
-0.444121
-0.443847
-0.443621
-0.443436
-0.443279
-0.336051
-0.336709
-0.33748
-0.338415
-0.339541
-0.3433
-0.246651
-0.238954
-0.23564
-0.232873
-0.230558
-0.228637
-0.121751
-0.12579
-0.130655
-0.136492
-0.143495
-0.159711
-0.109581
-0.0815062
-0.0711897
-0.0625839
-0.0554117
-0.0494293
-0.0145016
-0.0204235
-0.0275166
-0.0360331
-0.0462454
-0.0736388
-0.0681664
-0.0358164
-0.0257654
-0.0173877
-0.0103994
-0.00457096
-0.00459759
-0.010416
-0.01739
-0.0257573
-0.0358025
-0.0676281
-0.0675468
-0.0358224
-0.0257769
-0.0174064
-0.0104309
-0.00461621
-0.00466547
-0.0104783
-0.0174559
-0.0258231
-0.0358668
-0.0676177
-0.0677113
-0.0359258
-0.0258764
-0.0175037
-0.0105262
-0.00471046
0.0212868
0.0153834
0.00830553
-0.00019173
-0.0103916
-0.0394389
-0.0395035
-0.0104329
-0.000231968
0.0082695
0.0153523
0.0212555
0.0404965
0.0333422
0.0247582
0.014457
0.00209503
-0.0331359
-0.0252587
0.0119291
0.0262693
0.0382198
0.0481785
0.0564778
0.073586
0.0653705
0.055512
0.0436817
0.0294879
-0.0103762
0.00800979
0.050972
0.0630122
0.0730458
0.0814098
0.0883773
0.0973776
0.0916948
0.084876
0.0766953
0.066881
0.0329594
0.0475275
0.0727089
0.0826888
0.0910047
0.0979353
0.10371
0.109365
0.102495
0.094256
0.0843762
0.0725353
0.0438927
0.01255
0.0335046
0.0405902
0.0465724
0.0516934
0.0561404
-0.0413816
-0.0441129
-0.0468414
-0.0495697
-0.0523004
-0.0612617
-0.149631
-0.145084
-0.144401
-0.143718
-0.143037
-0.142354
-0.243572
-0.24365
-0.243726
-0.243803
-0.243881
-0.245924
-0.3452
-0.34441
-0.344409
-0.344409
-0.344409
-0.344409
-0.444599
-0.444599
-0.444599
-0.4446
-0.444601
-0.44489
-0.54435
-0.544243
-0.544242
-0.544241
-0.544241
-0.54424
-0.544018
-0.544018
-0.544018
-0.544019
-0.544019
-0.54414
-0.64325
-0.643209
-0.643208
-0.643207
-0.643207
-0.643206
-0.642917
-0.642917
-0.642918
-0.642918
-0.642919
-0.642978
-0.642774
-0.642704
-0.642704
-0.642703
-0.642703
-0.642703
-0.642577
-0.642577
-0.642577
-0.642578
-0.642579
-0.642644
-0.642617
-0.642587
-0.642589
-0.64259
-0.642592
-0.642595
-0.642832
-0.642825
-0.642818
-0.64281
-0.642798
-0.642723
-0.642834
-0.642933
-0.642942
-0.642955
-0.642976
-0.642976
-0.64302
-0.643028
-0.643017
-0.643019
-0.643017
-0.642989
-0.643508
-0.643561
-0.643567
-0.643564
-0.643564
-0.643564
-0.644636
-0.644641
-0.644632
-0.644643
-0.644634
-0.644458
-0.645899
-0.646284
-0.646287
-0.646276
-0.646285
-0.64628
-0.648497
-0.648498
-0.648504
-0.648507
-0.648504
-0.647853
-0.650218
-0.651165
-0.651168
-0.651163
-0.651155
-0.651159
-0.653644
-0.653645
-0.653653
-0.653658
-0.653662
-0.652507
-0.653212
-0.654526
-0.6545
-0.654491
-0.654469
-0.654466
-0.548932
-0.549004
-0.549084
-0.549177
-0.549291
-0.549063
-0.445039
-0.443198
-0.442627
-0.442151
-0.441754
-0.441431
-0.332391
-0.333544
-0.334895
-0.336533
-0.338499
-0.343562
-0.24729
-0.235367
-0.230327
-0.226125
-0.222606
-0.2197
-0.125691
-0.130349
-0.135934
-0.142635
-0.150672
-0.170138
-0.126766
-0.0995789
-0.0890729
-0.0803132
-0.073011
-0.0669251
-0.0553489
-0.0619165
-0.0698054
-0.079263
-0.0906113
-0.121094
-0.102531
-0.0664801
-0.054938
-0.0453133
-0.037292
-0.0306023
-0.0307553
-0.0374079
-0.0453906
-0.0549667
-0.0664563
-0.10179
-0.101678
-0.0665602
-0.0550705
-0.0454924
-0.0375091
-0.0308574
-0.0309352
-0.0375878
-0.0455723
-0.0551503
-0.0666438
-0.101734
-0.101826
-0.0667076
-0.0552092
-0.0456309
-0.0376436
-0.0309887
-0.0310224
-0.0376772
-0.0456668
-0.05525
-0.0667534
-0.101897
-0.0677797
-0.0359703
-0.025916
-0.0175383
-0.0105586
-0.0047397
-0.00475378
-0.010576
-0.0175579
-0.0259409
-0.035995
-0.0678216
-0.0395423
-0.0104567
-0.000253403
0.00824611
0.0153337
0.0212362
0.0404787
0.0333224
0.0247372
0.0144341
0.00206929
-0.0331792
-0.0252988
0.0119062
0.0262482
0.0381994
0.04816
0.0564571
0.0735679
0.0653528
0.0554945
0.0436643
0.0294711
-0.0104075
0.00799213
0.050963
0.0630012
0.0730344
0.0813981
0.0883634
0.0973711
0.0916882
0.0848721
0.0766929
0.0668779
0.0329579
0.04753
0.0727065
0.0826872
0.0910038
0.0979326
0.103707
0.109364
0.102494
0.0942544
0.0843743
0.0725329
0.0439032
0.0125724
0.0335384
0.0406302
0.0466159
0.0517383
0.0561871
-0.0413676
-0.0440969
-0.0468251
-0.0495557
-0.0522871
-0.0612483
-0.149642
-0.145102
-0.144419
-0.143735
-0.143052
-0.14237
-0.243621
-0.243697
-0.243774
-0.243853
-0.243929
-0.245964
-0.345274
-0.344493
-0.344492
-0.344492
-0.344492
-0.344491
-0.444736
-0.444736
-0.444736
-0.444737
-0.444738
-0.445016
-0.544578
-0.544488
-0.544487
-0.544486
-0.544485
-0.544485
-0.644059
-0.644059
-0.64406
-0.644062
-0.644064
-0.644042
-0.643603
-0.643588
-0.643587
-0.643586
-0.643585
-0.643585
-0.742911
-0.742911
-0.742912
-0.742914
-0.742917
-0.742849
-0.742215
-0.742232
-0.742231
-0.742229
-0.742228
-0.742228
-0.741759
-0.74176
-0.74176
-0.741761
-0.741762
-0.741778
-0.741497
-0.741461
-0.74146
-0.74146
-0.74146
-0.741459
-0.74129
-0.741291
-0.741291
-0.741292
-0.741293
-0.741335
-0.741288
-0.741255
-0.741254
-0.741253
-0.741254
-0.741254
-0.741364
-0.741364
-0.741363
-0.741364
-0.741364
-0.741349
-0.741496
-0.741539
-0.741541
-0.741544
-0.741547
-0.741549
-0.741825
-0.741825
-0.741824
-0.741823
-0.741824
-0.741774
-0.742407
-0.742528
-0.742525
-0.74252
-0.74253
-0.742525
-0.743783
-0.743777
-0.743777
-0.743773
-0.743783
-0.743507
-0.745213
-0.745727
-0.74572
-0.745731
-0.745723
-0.745729
-0.74849
-0.748489
-0.748493
-0.748485
-0.748489
-0.747639
-0.750756
-0.752035
-0.752031
-0.752031
-0.752032
-0.752033
-0.755819
-0.755833
-0.755816
-0.755829
-0.755827
-0.754148
-0.757009
-0.7583
-0.758301
-0.758286
-0.7583
-0.758286
-0.752342
-0.752347
-0.752346
-0.752363
-0.752364
-0.750907
-0.650113
-0.651424
-0.651367
-0.651333
-0.65129
-0.651272
-0.546511
-0.546686
-0.546864
-0.547083
-0.547356
-0.547551
-0.444582
-0.44178
-0.440705
-0.439808
-0.439056
-0.438443
-0.328974
-0.330781
-0.332938
-0.335538
-0.338649
-0.345467
-0.255361
-0.239717
-0.233205
-0.227776
-0.223245
-0.219476
-0.140943
-0.146825
-0.153868
-0.16233
-0.172467
-0.201273
-0.161019
-0.133939
-0.123846
-0.115427
-0.108407
-0.102548
-0.0845157
-0.0909445
-0.0986531
-0.1079
-0.118986
-0.153266
-0.15202
-0.118415
-0.107519
-0.0984328
-0.0908614
-0.084549
-0.0556939
-0.0621099
-0.0698169
-0.0790596
-0.090149
-0.119893
-0.119714
-0.0901889
-0.0791275
-0.0699083
-0.0622257
-0.0558245
-0.0559214
-0.0623211
-0.0699993
-0.0792159
-0.0902724
-0.119777
-0.119868
-0.0903447
-0.0792849
-0.070066
-0.0623831
-0.0559837
-0.0560193
-0.0624208
-0.0701064
-0.0793302
-0.0903951
-0.119938
-0.119979
-0.0904214
-0.0793553
-0.0701273
-0.0624413
-0.0560346
-0.0310389
-0.0376935
-0.0456855
-0.0552714
-0.0667794
-0.101941
-0.101963
-0.0667878
-0.0552793
-0.0456934
-0.0377015
-0.0310415
-0.00476311
-0.0105811
-0.0175661
-0.0259491
-0.0360054
-0.0678449
-0.0395631
-0.0104676
-0.000262183
0.00823958
0.0153249
0.0212305
0.0404702
0.0333152
0.0247266
0.0144227
0.00205656
-0.0332036
-0.0253205
0.0118955
0.0262385
0.038189
0.0481501
0.0564493
0.0735625
0.0653473
0.0554873
0.0436612
0.0294668
-0.0104192
0.00799045
0.0509638
0.0630018
0.0730323
0.0813942
0.0883612
0.0973693
0.0916883
0.0848741
0.076696
0.0668813
0.0329651
0.0475359
0.0727087
0.0826896
0.0910048
0.0979342
0.103708
0.109363
0.102492
0.0942537
0.084375
0.0725337
0.0439087
0.0125848
0.0335466
0.0406372
0.046624
0.0517435
0.0561902
-0.0413457
-0.0440747
-0.0468038
-0.0495345
-0.0522671
-0.0612257
-0.149631
-0.145093
-0.14441
-0.143726
-0.143042
-0.14236
-0.243638
-0.243714
-0.243792
-0.243871
-0.243948
-0.245977
-0.345324
-0.344548
-0.344547
-0.344547
-0.344547
-0.344546
-0.444856
-0.444856
-0.444856
-0.444857
-0.444858
-0.445128
-0.544817
-0.544749
-0.544748
-0.544747
-0.544746
-0.544746
-0.644604
-0.644605
-0.644606
-0.644608
-0.644611
-0.644542
-0.744716
-0.744972
-0.744969
-0.744966
-0.744965
-0.744964
-0.74384
-0.743841
-0.743842
-0.743845
-0.743848
-0.743699
-0.843888
-0.844236
-0.844233
-0.844231
-0.84423
-0.844229
-0.842481
-0.842482
-0.842483
-0.842485
-0.842488
-0.842309
-0.841189
-0.841265
-0.841263
-0.841261
-0.84126
-0.841259
-0.840485
-0.840485
-0.840486
-0.840487
-0.840488
-0.84047
-0.840044
-0.840031
-0.840031
-0.84003
-0.84003
-0.84003
-0.83978
-0.83978
-0.839781
-0.839781
-0.839782
-0.83981
-0.839721
-0.839684
-0.839683
-0.839682
-0.839679
-0.839678
-0.839694
-0.839698
-0.839703
-0.839707
-0.839713
-0.839731
-0.839876
-0.839883
-0.839882
-0.839876
-0.839873
-0.839871
-0.840231
-0.840236
-0.840227
-0.840232
-0.840234
-0.840187
-0.84082
-0.840952
-0.840946
-0.840949
-0.840954
-0.840949
-0.842181
-0.842181
-0.84219
-0.842178
-0.842185
-0.841901
-0.843597
-0.844118
-0.844118
-0.844118
-0.844119
-0.844114
-0.846935
-0.84695
-0.846935
-0.846943
-0.846946
-0.846065
-0.849305
-0.850703
-0.850693
-0.850694
-0.850702
-0.850695
-0.854994
-0.854984
-0.85499
-0.854981
-0.854993
-0.852851
-0.85604
-0.858674
-0.85867
-0.858669
-0.858668
-0.85867
-0.859255
-0.859259
-0.859256
-0.859259
-0.859257
-0.858029
-0.901227
-0.901637
-0.901626
-0.901616
-0.901606
-0.901599
-0.925101
-0.933782
-0.941019
-0.947053
-0.952082
-0.952079
-0.947052
-0.941022
-0.93379
-0.925113
-0.925124
-0.9338
-0.941033
-0.947056
-0.952072
-0.952072
-0.947051
-0.941032
-0.933805
-0.925142
-0.925158
-0.933817
-0.941041
-0.947046
-0.952064
-0.952225
-0.947061
-0.940869
-0.933435
-0.924516
-0.925732
-0.934436
-0.941694
-0.947735
-0.952773
-0.909921
-0.903487
-0.895766
-0.886499
-0.875378
-0.848792
-0.805056
-0.838014
-0.85158
-0.862886
-0.872306
-0.880154
-0.879998
-0.871984
-0.862361
-0.850817
-0.836961
-0.837506
-0.851175
-0.862565
-0.872057
-0.879964
-0.879979
-0.872069
-0.862573
-0.851178
-0.837503
-0.837504
-0.851185
-0.862581
-0.872077
-0.879992
-0.88001
-0.87209
-0.862588
-0.851184
-0.837504
-0.837501
-0.851185
-0.862591
-0.872095
-0.880014
-0.86528
-0.856791
-0.846604
-0.834377
-0.819704
-0.819705
-0.834374
-0.846598
-0.856785
-0.865272
-0.865263
-0.856777
-0.846592
-0.83437
-0.819706
-0.819702
-0.834365
-0.846584
-0.856764
-0.865249
-0.865232
-0.856753
-0.846575
-0.834359
-0.819702
-0.81822
-0.833311
-0.845886
-0.856363
-0.86509
-0.865044
-0.856212
-0.845612
-0.832888
-0.817619
-0.782392
-0.782325
-0.782396
-0.782381
-0.782362
-0.782344
-0.78234
-0.718816
-0.718873
-0.718919
-0.718988
-0.719066
-0.717974
-0.636437
-0.636836
-0.636459
-0.63616
-0.63589
-0.635683
-0.536297
-0.53701
-0.53784
-0.538864
-0.540072
-0.542413
-0.446148
-0.439721
-0.436562
-0.433936
-0.431731
-0.429906
-0.321608
-0.325314
-0.329747
-0.335075
-0.341458
-0.356613
-0.302151
-0.27398
-0.264377
-0.256377
-0.249701
-0.244139
-0.204062
-0.209643
-0.216353
-0.224395
-0.234033
-0.260235
-0.222123
-0.195106
-0.18512
-0.176791
-0.169851
-0.164063
-0.150258
-0.15652
-0.164028
-0.173034
-0.183839
-0.214778
-0.191905
-0.153447
-0.141725
-0.131953
-0.123806
-0.117015
-0.116774
-0.123461
-0.131477
-0.141099
-0.152642
-0.190277
-0.189908
-0.152592
-0.141083
-0.13149
-0.123501
-0.116835
-0.0846717
-0.0909699
-0.098531
-0.107604
-0.118486
-0.151841
-0.151888
-0.118569
-0.107691
-0.0986253
-0.0910693
-0.0847778
-0.0848449
-0.0911397
-0.0986981
-0.107767
-0.118652
-0.151985
-0.15206
-0.118706
-0.107816
-0.0987441
-0.0911834
-0.0848865
-0.0849045
-0.091204
-0.0987705
-0.107842
-0.118737
-0.152105
-0.152131
-0.118751
-0.107856
-0.0987822
-0.0912137
-0.0849105
-0.0560399
-0.0624492
-0.0701375
-0.0793656
-0.0904338
-0.120001
-0.120009
-0.0904365
-0.0793647
-0.0701379
-0.0624473
-0.0560379
-0.0310404
-0.0377003
-0.0456923
-0.0552828
-0.0667894
-0.101972
-0.0678508
-0.036008
-0.0259492
-0.0175688
-0.0105813
-0.00476331
0.0212288
0.0153232
0.00823782
-0.000266036
-0.01047
-0.0395708
-0.0332148
0.00205151
0.014418
0.0247221
0.0333127
0.0404683
0.0564494
0.0481462
0.0381854
0.0262365
0.0118933
-0.0253289
-0.0104213
0.0294697
0.043664
0.0554894
0.0653453
0.0735605
0.0883593
0.0813946
0.0730353
0.0630049
0.0509675
0.00799401
0.0329718
0.0668861
0.0766972
0.0848746
0.0916896
0.0973676
0.103708
0.0979333
0.091003
0.08269
0.0727128
0.0475425
0.043917
0.0725374
0.0843766
0.0942527
0.10249
0.109361
0.0562015
0.0517554
0.0466351
0.040649
0.033559
0.0125994
-0.0612077
-0.052251
-0.0495191
-0.0467899
-0.0440584
-0.0413282
-0.142349
-0.143032
-0.143715
-0.144398
-0.145082
-0.149619
-0.245983
-0.243954
-0.243876
-0.243799
-0.243721
-0.243644
-0.344585
-0.344586
-0.344586
-0.344586
-0.344587
-0.345359
-0.445228
-0.444965
-0.444965
-0.444964
-0.444964
-0.444964
-0.544996
-0.544996
-0.544997
-0.544999
-0.545
-0.545048
-0.645047
-0.645167
-0.645164
-0.645161
-0.645159
-0.645159
-0.74615
-0.746151
-0.746153
-0.746155
-0.746158
-0.745775
-0.847922
-0.848793
-0.848792
-0.848791
-0.84879
-0.848789
-0.84643
-0.846431
-0.846432
-0.846434
-0.846436
-0.845848
-0.94841
-0.949587
-0.949586
-0.949585
-0.949585
-0.949584
-0.945537
-0.945537
-0.945538
-0.945539
-0.945541
-0.944863
-0.942124
-0.942471
-0.942469
-0.942467
-0.942466
-0.942466
-0.94042
-0.940421
-0.940422
-0.940424
-0.940426
-0.940271
-0.939138
-0.939194
-0.939192
-0.939191
-0.93919
-0.939189
-0.938504
-0.938504
-0.938505
-0.938505
-0.938506
-0.938499
-0.938164
-0.938146
-0.938145
-0.938144
-0.938144
-0.938143
-0.937972
-0.937976
-0.937978
-0.937978
-0.937982
-0.938015
-0.937973
-0.93794
-0.937933
-0.937928
-0.937922
-0.937916
-0.938051
-0.938054
-0.938058
-0.938064
-0.938074
-0.938083
-0.938354
-0.938388
-0.938382
-0.938382
-0.938382
-0.938382
-0.938986
-0.938985
-0.938985
-0.938989
-0.938986
-0.938882
-0.939775
-0.94
-0.940009
-0.939998
-0.940007
-0.940002
-0.941614
-0.941608
-0.941608
-0.941612
-0.941612
-0.941189
-0.943279
-0.944003
-0.944003
-0.944004
-0.94399
-0.944007
-0.947257
-0.947253
-0.947263
-0.947265
-0.947257
-0.946047
-0.949109
-0.951254
-0.951257
-0.951259
-0.951249
-0.951252
-0.955698
-0.955684
-0.955698
-0.955694
-0.955692
-0.951645
-0.967741
-0.985664
-0.991806
-0.996925
-1.00119
-1.00475
-1.00417
-1.00417
-1.00417
-1.00417
-1.00417
-1.00066
-1.00067
-1.00067
-1.00067
-1.00068
-0.996486
-0.99648
-0.99647
-0.996464
-0.996454
-0.991401
-0.991414
-0.991424
-0.991446
-0.991464
-0.985426
-0.985396
-0.985372
-0.985358
-0.985337
-0.969949
-0.969951
-0.96997
-0.969983
-0.969998
-1.05318
-1.05316
-1.05315
-1.05314
-1.05312
-1.05713
-1.05715
-1.05717
-1.05719
-1.05723
-1.05968
-1.05966
-1.05964
-1.05962
-1.05961
-1.06167
-1.06168
-1.06169
-1.06171
-1.06172
-1.06343
-1.06342
-1.0634
-1.0634
-1.0634
-1.06482
-1.06483
-1.06483
-1.06484
-1.06484
-1.06531
-1.06385
-1.06208
-1.05997
-1.05743
-1.05286
-1.0526
-1.05801
-1.06059
-1.06275
-1.06454
-1.06603
-1.00584
-1.00236
-0.998181
-0.993165
-0.987143
-0.965438
-0.902036
-0.904954
-0.929529
-0.937287
-0.943756
-0.949143
-0.953626
-0.9104
-0.904631
-0.897709
-0.889405
-0.87944
-0.851449
-0.80734
-0.841155
-0.853817
-0.864371
-0.873161
-0.88049
-0.86526
-0.856744
-0.846524
-0.83426
-0.81954
-0.784406
-0.783323
-0.818581
-0.833618
-0.846147
-0.856588
-0.865284
-0.865113
-0.8561
-0.84528
-0.832293
-0.816708
-0.781266
-0.780825
-0.817147
-0.832615
-0.845504
-0.856239
-0.865186
-0.865328
-0.865341
-0.865352
-0.865357
-0.865364
-0.856614
-0.85661
-0.856606
-0.856599
-0.85659
-0.846105
-0.846108
-0.84611
-0.846111
-0.846112
-0.833508
-0.83351
-0.833515
-0.833517
-0.833518
-0.818418
-0.818408
-0.818401
-0.81839
-0.818383
-0.780349
-0.780379
-0.780415
-0.780468
-0.78052
-0.716442
-0.716172
-0.715942
-0.715755
-0.715592
-0.630711
-0.631241
-0.631883
-0.632633
-0.633553
-0.63441
-0.541638
-0.537027
-0.534639
-0.532642
-0.530995
-0.529597
-0.420792
-0.423721
-0.427256
-0.431499
-0.436574
-0.447944
-0.370535
-0.35204
-0.344542
-0.338297
-0.333083
-0.328733
-0.270583
-0.275924
-0.282334
-0.290022
-0.299246
-0.325115
-0.317653
-0.287991
-0.27839
-0.270383
-0.263712
-0.25815
-0.220265
-0.226541
-0.234073
-0.243108
-0.253943
-0.292161
-0.251762
-0.218278
-0.207716
-0.198905
-0.191558
-0.185435
-0.184862
-0.190838
-0.198002
-0.206601
-0.216911
-0.249821
-0.212887
-0.182748
-0.172252
-0.163508
-0.156213
-0.150137
-0.15011
-0.156155
-0.163404
-0.172097
-0.182534
-0.212394
-0.212336
-0.182539
-0.172118
-0.163435
-0.1562
-0.150163
-0.116923
-0.123578
-0.131563
-0.141146
-0.152646
-0.189885
-0.189962
-0.152715
-0.141214
-0.131629
-0.123644
-0.116986
-0.117027
-0.123689
-0.131676
-0.141265
-0.152767
-0.190033
-0.190082
-0.152799
-0.141295
-0.131703
-0.123711
-0.117052
-0.11706
-0.12372
-0.131716
-0.141307
-0.152816
-0.190109
-0.19012
-0.152822
-0.14131
-0.131716
-0.123721
-0.117061
-0.0849097
-0.0912131
-0.0987812
-0.10786
-0.118753
-0.152141
-0.152144
-0.118751
-0.107856
-0.0987743
-0.0912085
-0.0849034
-0.0560301
-0.0624395
-0.0701324
-0.0793598
-0.0904339
-0.12001
-0.101973
-0.0667868
-0.0552798
-0.045687
-0.0376924
-0.0310356
-0.00475661
-0.0105817
-0.0175656
-0.0259487
-0.0360076
-0.0678527
-0.0395729
-0.0104688
-0.000263941
0.00823779
0.0153279
0.0212303
0.0404706
0.033313
0.0247236
0.01442
0.00205168
-0.033218
-0.0253305
0.0118933
0.0262373
0.0381871
0.0481461
0.0564508
0.0735593
0.0653461
0.0554928
0.0436655
0.0294724
-0.0104212
0.00799567
0.0509712
0.0630068
0.0730385
0.0813957
0.08836
0.0973667
0.0916897
0.0848739
0.0766974
0.0668878
0.0329768
0.0475487
0.0727138
0.0826898
0.0910041
0.0979329
0.103706
0.109359
0.10249
0.0942533
0.0843771
0.072538
0.0439211
0.0126054
0.0335597
0.0406497
0.0466356
0.0517553
0.0562023
-0.0413204
-0.0440493
-0.0467798
-0.0495104
-0.052241
-0.0611959
-0.149613
-0.145076
-0.144391
-0.143707
-0.143025
-0.142341
-0.243649
-0.243726
-0.243802
-0.24388
-0.243959
-0.245988
-0.345387
-0.344618
-0.344617
-0.344616
-0.344616
-0.344616
-0.445054
-0.445054
-0.445055
-0.445055
-0.445056
-0.44531
-0.545238
-0.545207
-0.545205
-0.545203
-0.545202
-0.545202
-0.645638
-0.645639
-0.645641
-0.645644
-0.645647
-0.645481
-0.74668
-0.747179
-0.747177
-0.747176
-0.747174
-0.747174
-0.850853
-0.850853
-0.850854
-0.850854
-0.850855
-0.849715
-0.956373
-0.957549
-0.957573
-0.957596
-0.95762
-0.957645
-0.953983
-0.953983
-0.953983
-0.953984
-0.953984
-0.952483
-1.06171
-1.06206
-1.06213
-1.06219
-1.06226
-1.06233
-1.05459
-1.05459
-1.05459
-1.05459
-1.05459
-1.05339
-1.04659
-1.04775
-1.04775
-1.04775
-1.04775
-1.04775
-1.04281
-1.04281
-1.04281
-1.04282
-1.04282
-1.04224
-1.03944
-1.0397
-1.03969
-1.03969
-1.03969
-1.03969
-1.03789
-1.03789
-1.03789
-1.0379
-1.0379
-1.0378
-1.03691
-1.03693
-1.03693
-1.03693
-1.03693
-1.03693
-1.03644
-1.03644
-1.03644
-1.03644
-1.03644
-1.03645
-1.03623
-1.03621
-1.03621
-1.0362
-1.0362
-1.0362
-1.03609
-1.0361
-1.0361
-1.0361
-1.03611
-1.03614
-1.03619
-1.03617
-1.03617
-1.03616
-1.03616
-1.03616
-1.03638
-1.03638
-1.03638
-1.03638
-1.03638
-1.03637
-1.03671
-1.03677
-1.03677
-1.03677
-1.03677
-1.03677
-1.03743
-1.03743
-1.03744
-1.03743
-1.03743
-1.03729
-1.03824
-1.03849
-1.03849
-1.03848
-1.03849
-1.03848
-1.04006
-1.04007
-1.04006
-1.04007
-1.04007
-1.03966
-1.04159
-1.04225
-1.04225
-1.04225
-1.04225
-1.04225
-1.04503
-1.04503
-1.04503
-1.04503
-1.04503
-1.0439
-1.0473
-1.04859
-1.04859
-1.04859
-1.0486
-1.04859
-1.13717
-1.13716
-1.13717
-1.13717
-1.13717
-1.13821
-1.13591
-1.13349
-1.1324
-1.1315
-1.13074
-1.13011
-1.1298
-1.12978
-1.12978
-1.12977
-1.12977
-1.13037
-1.13037
-1.13039
-1.13039
-1.13041
-1.13114
-1.13112
-1.13111
-1.13109
-1.13109
-1.13195
-1.13196
-1.13198
-1.132
-1.13202
-1.13308
-1.13305
-1.13302
-1.133
-1.13299
-1.13509
-1.13509
-1.1351
-1.13512
-1.13514
-1.22033
-1.22031
-1.2203
-1.22029
-1.22027
-1.2069
-1.20692
-1.20694
-1.20696
-1.207
-1.20259
-1.20256
-1.20254
-1.20253
-1.20251
-1.19886
-1.19887
-1.19888
-1.19889
-1.19891
-1.19585
-1.19584
-1.19583
-1.19582
-1.19581
-1.19327
-1.19327
-1.19327
-1.19329
-1.1933
-1.19359
-1.19618
-1.19927
-1.20298
-1.20744
-1.22273
-1.22545
-1.20731
-1.203
-1.1994
-1.19641
-1.1939
-1.13068
-1.13133
-1.1321
-1.13302
-1.13412
-1.13701
-1.13757
-1.13437
-1.1333
-1.13242
-1.13168
-1.13105
-1.06653
-1.0651
-1.06337
-1.0613
-1.05882
-1.05299
-0.965395
-0.989266
-0.994881
-0.999555
-1.00345
-1.0067
-1.00716
-1.00401
-1.00024
-0.995701
-0.990263
-0.967221
-0.907544
-0.931612
-0.938894
-0.944963
-0.950019
-0.954226
-0.910605
-0.905155
-0.898616
-0.890767
-0.881352
-0.852511
-0.807837
-0.842667
-0.854918
-0.865125
-0.873632
-0.880721
-0.865374
-0.857028
-0.84701
-0.834989
-0.820564
-0.785361
-0.784275
-0.819617
-0.83435
-0.846626
-0.856855
-0.865377
-0.880734
-0.873299
-0.864383
-0.853677
-0.840832
-0.805555
-0.805028
-0.839323
-0.852601
-0.863661
-0.872878
-0.880557
-0.880313
-0.872117
-0.862279
-0.850471
-0.836298
-0.802518
-0.798764
-0.796099
-0.795941
-0.795804
-0.795699
-0.795604
-0.834185
-0.848992
-0.861331
-0.871616
-0.880181
-0.880179
-0.87162
-0.861341
-0.849007
-0.834208
-0.834232
-0.849021
-0.86135
-0.871619
-0.880173
-0.880166
-0.871619
-0.861358
-0.849042
-0.834263
-0.834297
-0.849064
-0.861367
-0.87162
-0.880157
-0.880201
-0.8717
-0.861493
-0.849245
-0.834544
-0.871388
-0.883676
-0.893923
-0.902453
-0.909563
-0.909238
-0.902102
-0.893544
-0.883262
-0.870932
-0.870877
-0.883228
-0.893524
-0.902099
-0.909241
-0.90924
-0.902089
-0.8935
-0.883203
-0.870838
-0.870799
-0.883178
-0.893486
-0.902082
-0.90924
-0.909241
-0.902075
-0.893478
-0.883158
-0.870773
-0.837158
-0.837282
-0.837426
-0.837595
-0.837804
-0.840844
-0.812886
-0.807878
-0.807294