/*--------------------------------*- C++ -*----------------------------------*\
| =========                 |                                                 |
| \\      /  F ield         | OpenFOAM: The Open Source CFD Toolbox           |
|  \\    /   O peration     | Version:  2212                                  |
|   \\  /    A nd           | Website:  www.openfoam.com                      |
|    \\/     M anipulation  |                                                 |
\*---------------------------------------------------------------------------*/
FoamFile
{
    version     2.0;
    format      ascii;
    arch        "LSB;label=32;scalar=64";
    class       volScalarField;
    location    "290";
    object      T;
}
// * * * * * * * * * * * * * * * * * * * * * * * * * * * * * * * * * * * * * //

dimensions      [0 0 0 1 0 0 0];

internalField   nonuniform List<scalar> 
248319
(
311.377
311.203
310.776
310.567
310.378
310.251
310.209
310.305
310.364
310.539
310.782
311.038
311.377
311.279
310.836
310.558
310.363
310.264
310.255
310.684
310.736
310.837
310.945
311.052
311.183
311.086
311.005
310.923
310.847
310.79
310.769
310.524
310.511
310.536
310.584
310.652
311.102
311.06
310.86
310.653
310.465
310.36
310.337
310.544
310.59
310.695
310.821
310.939
311.07
311.091
311.054
310.964
310.869
310.798
310.772
310.855
310.885
310.973
311.102
311.246
311.54
311.479
311.119
310.955
310.793
310.661
310.606
310.661
310.706
310.838
311.021
311.199
311.437
311.415
311.059
310.783
310.524
310.346
310.287
310.198
310.207
310.309
310.527
310.862
311.352
311.295
311.188
311.086
310.966
310.836
310.751
310.884
310.924
310.966
310.995
311.013
311.016
311.027
310.999
310.968
310.933
310.887
310.851
310.628
310.641
310.654
310.66
310.657
310.642
310.603
310.606
310.578
310.494
310.398
310.361
310.583
310.602
310.63
310.618
310.568
310.533
310.46
310.531
310.622
310.691
310.704
310.699
310.787
310.783
310.746
310.647
310.515
310.39
311.095
311.098
311.022
310.947
310.889
310.869
310.988
311.018
311.113
311.257
311.414
311.613
311.46
311.589
311.456
311.286
311.163
311.121
310.955
310.993
311.105
311.265
311.413
311.447
311.106
311.406
311.289
311.134
311.015
310.972
310.577
310.627
310.772
310.967
311.14
311.138
311.191
310.884
310.614
310.355
310.178
310.119
310.099
310.115
310.219
310.414
310.727
311.219
311.235
311.161
311.079
310.958
310.819
310.728
310.843
310.887
310.929
310.95
310.948
310.923
310.576
310.653
310.703
310.73
310.732
310.718
310.704
310.716
310.722
310.713
310.69
310.652
310.35
310.417
310.47
310.512
310.542
310.564
310.503
310.488
310.471
310.448
310.415
310.365
310.345
310.43
310.462
310.425
310.351
310.317
310.484
310.5
310.513
310.47
310.377
310.239
310.11
310.274
310.42
310.527
310.562
310.562
310.63
310.617
310.546
310.401
310.219
310.019
310.016
310.247
310.444
310.604
310.692
310.713
310.872
310.867
310.829
310.729
310.577
310.397
311.16
311.125
311.057
310.998
310.949
310.932
311.073
311.111
311.225
311.385
311.545
311.657
311.52
311.724
311.631
311.449
311.301
311.249
311.335
311.375
311.497
311.632
311.627
311.066
311.103
311.563
311.489
311.343
311.229
311.19
311.241
311.277
311.384
311.532
311.626
310.856
310.897
311.371
311.249
311.091
310.968
310.922
310.357
310.414
310.579
310.802
310.993
310.887
310.94
310.638
310.362
310.098
309.918
309.859
309.926
309.948
310.061
310.253
310.543
311.011
311.077
311.044
310.995
310.897
310.768
310.685
310.779
310.818
310.851
310.852
310.823
310.768
310.465
310.571
310.648
310.697
310.708
310.697
310.608
310.596
310.557
310.482
310.379
310.255
310.31
310.41
310.488
310.547
310.582
310.597
310.488
310.448
310.391
310.314
310.221
310.113
310.114
310.196
310.268
310.333
310.391
310.442
310.39
310.353
310.315
310.273
310.219
310.147
310.147
310.287
310.356
310.343
310.281
310.25
310.378
310.393
310.401
310.342
310.22
310.016
309.84
310.068
310.255
310.385
310.427
310.428
310.454
310.439
310.357
310.183
309.959
309.704
309.632
309.904
310.144
310.337
310.444
310.47
310.486
310.453
310.343
310.159
309.928
309.659
310.158
310.392
310.583
310.731
310.814
310.836
310.96
310.96
310.943
310.876
310.751
310.562
311.259
311.184
311.111
311.054
311.008
310.992
311.134
311.176
311.297
311.462
311.629
311.736
311.708
311.837
311.745
311.565
311.412
311.357
311.442
311.481
311.59
311.683
311.625
311.228
310.788
311.898
311.919
311.724
311.601
311.565
311.424
311.461
311.581
311.753
311.817
310.732
310.393
311.915
312.168
312.096
311.982
311.938
311.526
311.571
311.688
311.825
311.826
310.654
310.725
311.402
311.255
311.035
310.868
310.809
310.022
310.079
310.252
310.508
310.765
310.708
310.688
310.329
310.044
309.785
309.609
309.551
309.701
309.728
309.858
310.068
310.343
310.771
310.867
310.875
310.861
310.795
310.689
310.622
310.691
310.72
310.738
310.715
310.659
310.58
310.332
310.464
310.563
310.63
310.652
310.645
310.583
310.579
310.543
310.46
310.343
310.199
310.142
310.283
310.395
310.474
310.508
310.514
310.511
310.489
310.44
310.357
310.249
310.122
310.034
310.154
310.255
310.336
310.389
310.42
310.379
310.323
310.253
310.168
310.071
309.963
309.927
310.015
310.098
310.177
310.254
310.328
310.283
310.228
310.174
310.12
310.053
309.966
309.986
310.166
310.258
310.259
310.203
310.175
310.267
310.283
310.29
310.226
310.089
309.839
309.633
309.911
310.122
310.258
310.296
310.296
310.295
310.283
310.202
310.012
309.76
309.469
309.357
309.656
309.93
310.149
310.263
310.288
310.295
310.261
310.131
309.907
309.632
309.331
309.461
309.755
310.003
310.197
310.311
310.343
310.52
310.493
310.413
310.28
310.096
309.858
310.504
310.712
310.851
310.942
310.985
310.996
311.074
311.086
311.106
311.097
311.036
310.902
311.489
311.293
311.189
311.127
311.082
311.069
311.195
311.236
311.355
311.539
311.759
311.953
311.976
312.001
311.837
311.627
311.475
311.425
311.488
311.523
311.635
311.776
311.823
311.542
311.1
312.069
311.996
311.786
311.66
311.628
312.566
312.584
312.603
312.526
312.222
310.634
310.378
311.955
312.335
312.413
312.347
312.312
312.604
312.586
312.481
312.175
311.564
309.946
310.039
311.63
312.155
312.393
312.428
312.416
312.008
312.048
312.113
312.094
311.837
310.404
310.559
311.466
311.31
311.025
310.814
310.743
309.692
309.741
309.9
310.161
310.495
310.569
310.529
309.994
309.724
309.479
309.313
309.259
309.504
309.531
309.67
309.89
310.167
310.576
310.672
310.702
310.713
310.671
310.589
310.536
310.585
310.606
310.614
310.579
310.514
310.429
310.253
310.391
310.492
310.557
310.573
310.563
310.528
310.537
310.521
310.452
310.343
310.19
310.209
310.35
310.442
310.493
310.496
310.481
310.428
310.443
310.452
310.425
310.363
310.264
310.124
310.246
310.342
310.407
310.432
310.438
310.363
310.357
310.34
310.292
310.218
310.122
309.972
310.076
310.165
310.239
310.29
310.327
310.274
310.206
310.129
310.042
309.948
309.848
309.774
309.863
309.95
310.037
310.127
310.219
310.178
310.108
310.042
309.98
309.907
309.813
309.844
310.057
310.163
310.173
310.121
310.095
310.15
310.167
310.176
310.112
309.971
309.689
309.474
309.78
309.994
310.128
310.161
310.159
310.141
310.133
310.06
309.871
309.605
309.294
309.169
309.472
309.76
309.992
310.106
310.127
310.139
310.104
309.962
309.715
309.423
309.122
309.216
309.518
309.795
310.024
310.163
310.204
310.391
310.367
310.279
310.123
309.911
309.644
309.927
310.159
310.325
310.432
310.48
310.488
310.663
310.65
310.631
310.602
310.52
310.368
311.132
311.239
311.255
311.243
311.217
311.207
311.323
311.335
311.375
311.413
311.428
311.409
312.255
312.02
311.748
311.556
311.449
311.419
311.286
311.325
311.444
311.665
311.978
312.292
312.364
312.154
311.849
311.599
311.455
311.412
311.442
311.479
311.608
311.833
312.089
311.984
311.588
312.189
311.938
311.682
311.55
311.513
312.618
312.648
312.721
312.738
312.595
311.137
310.612
312.422
312.733
312.872
312.923
312.934
312.755
312.74
312.657
312.414
311.89
310.147
309.752
311.374
312.148
312.543
312.691
312.722
312.564
312.528
312.351
311.889
311.072
309.601
309.723
311.214
311.914
312.305
312.453
312.482
312.317
312.324
312.276
312.06
311.618
310.155
310.414
311.604
311.605
311.344
311.127
311.051
309.634
309.668
309.799
310.073
310.558
310.483
310.472
309.721
309.475
309.267
309.125
309.079
309.448
309.467
309.59
309.781
310.023
310.514
310.616
310.644
310.65
310.608
310.533
310.48
310.529
310.572
310.599
310.565
310.492
310.393
310.244
310.408
310.529
310.591
310.572
310.526
310.506
310.555
310.585
310.541
310.418
310.231
310.314
310.497
310.571
310.573
310.526
310.475
310.435
310.483
310.54
310.58
310.568
310.422
310.567
310.637
310.598
310.528
310.455
310.405
310.362
310.379
310.399
310.394
310.364
310.329
310.411
310.353
310.347
310.336
310.313
310.299
310.281
310.276
310.269
310.24
310.191
310.125
309.926
310.01
310.085
310.148
310.195
310.234
310.172
310.096
310.016
309.931
309.845
309.754
309.65
309.734
309.82
309.911
310.009
310.113
310.074
309.99
309.917
309.85
309.776
309.679
309.712
309.953
310.068
310.083
310.035
310.01
310.024
310.042
310.053
309.992
309.855
309.557
309.344
309.657
309.864
309.99
310.018
310.014
309.984
309.979
309.913
309.731
309.476
309.162
309.04
309.321
309.606
309.842
309.953
309.97
309.988
309.952
309.804
309.549
309.26
308.988
309.058
309.345
309.625
309.867
310.02
310.066
310.286
310.258
310.157
309.987
309.763
309.481
310.727
310.887
310.953
311.007
311.061
311.08
311.167
311.145
311.078
310.989
310.904
310.778
311.021
311.111
311.187
311.255
311.293
311.302
311.451
311.483
311.523
311.504
311.465
311.422
312.108
312.15
312.104
311.935
311.757
311.69
311.599
311.642
311.798
312.026
312.199
312.221
312.81
312.604
312.335
312.015
311.784
311.71
311.803
311.884
312.153
312.554
312.946
313.261
312.589
312.382
312
311.706
311.556
311.516
311.545
311.584
311.731
312.015
312.354
312.262
311.842
312.453
312.213
311.877
311.689
311.638
312.753
312.788
312.843
312.801
312.613
311.297
310.637
312.367
312.719
312.888
312.951
312.965
312.945
312.923
312.822
312.56
312.049
310.102
310.187
312.157
312.602
312.817
312.898
312.916
312.893
312.868
312.751
312.444
311.844
309.861
309.48
310.922
311.854
312.397
312.623
312.672
312.503
312.446
312.177
311.548
310.571
309.344
309.487
310.811
311.644
312.166
312.384
312.432
312.371
312.347
312.217
311.892
311.341
309.952
310.288
311.652
311.908
311.929
311.81
311.753
310.231
310.258
310.396
310.78
311.141
310.45
310.511
309.996
309.606
309.39
309.268
309.23
309.66
309.653
309.711
309.814
309.991
310.59
310.693
310.76
310.837
310.886
310.895
310.875
310.949
310.894
310.787
310.666
310.543
310.414
310.273
310.46
310.627
310.787
310.92
310.981
310.987
310.953
310.844
310.682
310.505
310.295
310.418
310.659
310.809
310.933
310.994
311
311.057
311.068
311.049
310.973
310.867
310.597
310.875
311.138
311.199
311.235
311.241
311.228
311.358
311.37
311.376
311.37
311.351
311.188
310.764
310.754
310.694
310.618
310.551
310.509
310.612
310.637
310.682
310.737
310.792
310.913
310.505
310.352
310.318
310.289
310.263
310.254
310.199
310.194
310.194
310.182
310.158
310.146
309.891
309.953
310.011
310.062
310.104
310.144
310.074
309.992
309.912
309.834
309.757
309.679
309.548
309.625
309.706
309.795
309.896
310.01
309.969
309.876
309.796
309.729
309.656
309.561
309.589
309.849
309.969
309.99
309.944
309.92
309.89
309.908
309.921
309.864
309.735
309.439
309.233
309.533
309.725
309.843
309.866
309.86
309.82
309.818
309.758
309.586
309.349
309.064
308.957
309.191
309.456
309.684
309.792
309.807
309.829
309.792
309.642
309.395
309.131
308.909
308.964
309.221
309.482
309.715
309.869
309.917
310.171
310.152
310.068
309.919
309.712
309.442
310.963
311.088
311.117
311.099
311.085
311.083
312.056
312.176
312.458
312.683
312.746
312.705
312.543
312.62
312.591
312.349
312.051
311.931
311.888
312.004
312.307
312.616
312.724
312.641
312.985
312.952
312.697
312.317
311.997
311.882
311.858
311.961
312.283
312.739
313.15
313.386
313.578
312.942
312.41
312.033
311.842
311.791
311.797
311.858
312.087
312.492
312.989
313.489
313.059
312.701
312.363
312.041
311.817
311.744
311.886
311.972
312.259
312.72
313.275
313.924
313.978
313.261
312.715
312.255
311.977
311.894
311.807
311.884
312.129
312.487
312.807
313.151
312.906
312.729
312.554
312.222
311.96
311.884
312.886
312.912
312.926
312.885
312.778
312.563
312.156
312.586
312.826
312.949
312.995
313.007
312.997
312.978
312.893
312.69
312.334
311.778
311.475
312.117
312.562
312.836
312.961
312.991
312.931
312.899
312.752
312.381
311.685
309.722
309.499
311.258
312.174
312.673
312.876
312.922
312.886
312.853
312.699
312.301
311.545
309.672
309.296
310.576
311.59
312.255
312.56
312.632
312.452
312.367
312.002
311.246
310.219
309.182
309.332
310.503
311.407
312.037
312.325
312.39
312.351
312.312
312.135
311.732
311.113
309.811
310.189
311.561
311.939
312.145
312.196
312.191
311.323
311.353
311.47
311.632
311.597
310.43
310.613
310.889
310.542
310.264
310.123
310.083
310.19
310.169
310.185
310.271
310.563
310.725
310.785
310.887
310.997
311.123
311.257
311.346
311.278
311.103
310.916
310.751
310.601
310.451
310.32
310.52
310.71
310.911
311.128
311.322
311.394
311.216
311
310.793
310.593
310.374
310.535
310.803
310.98
311.163
311.345
311.488
311.606
311.508
311.378
311.242
311.104
310.78
311.188
311.519
311.601
311.676
311.744
311.793
311.54
311.535
311.537
311.539
311.536
311.465
311.562
311.12
310.961
310.802
310.67
310.592
310.904
310.93
310.975
311.028
311.083
311.267
311.626
310.983
310.712
310.461
310.26
310.137
310.341
310.384
310.461
310.56
310.671
311.069
310.604
310.343
310.293
310.254
310.227
310.219
310.12
310.113
310.117
310.119
310.119
310.199
309.862
309.902
309.943
309.982
310.016
310.056
309.978
309.894
309.818
309.748
309.682
309.619
309.466
309.533
309.606
309.69
309.791
309.91
309.865
309.764
309.682
309.616
309.547
309.459
309.475
309.743
309.865
309.891
309.848
309.825
309.747
309.765
309.779
309.726
309.609
309.334
309.142
309.407
309.579
309.686
309.704
309.697
309.648
309.649
309.593
309.434
309.224
308.996
308.912
309.072
309.298
309.511
309.617
309.633
309.649
309.608
309.459
309.231
309.012
308.859
308.862
309.076
309.306
309.522
309.675
309.73
309.969
309.947
309.875
309.749
309.572
309.342
310.95
311.029
311.06
311.057
311.026
310.995
311.707
311.806
312.093
312.455
312.691
312.628
313.06
312.894
312.577
312.205
311.956
311.913
313.938
318.569
331.389
367.813
446.922
432.143
348.177
321.206
314.584
312.629
312.322
312.696
314.745
330.032
408.591
388.037
321.799
313.376
312.718
312.618
312.966
313.041
313.517
320.543
382.908
398.922
325.24
314.373
313.452
313.26
313.272
313.641
315.457
331.864
414.408
414.522
331.955
315.649
313.932
313.733
313.64
313.865
313.936
314.087
315.483
329.979
409.818
400.167
325.624
314.8
313.971
313.908
313.77
313.779
314.365
323.377
393.523
401.511
325.469
314.377
313.544
313.504
313.193
313.604
316.087
334.51
420.968
441.127
355.673
325.184
316.353
313.923
316.982
323.5
339.31
376.4
453.192
454.985
377.656
337.99
322.129
316.048
313.942
316.34
325.01
358.407
444.514
425.524
337.808
316.892
313.94
313.451
313.796
313.859
314.997
328.206
407.646
399.496
325.623
314.942
314.173
314.147
314.401
314.422
315.276
326.638
401.955
406.975
328.904
315.765
314.679
314.632
314.633
314.399
314.147
313.791
313.311
312.93
312.849
312.767
312.935
313.377
313.833
314.15
314.368
314.268
314.055
313.745
313.294
312.861
312.692
312.608
312.759
313.178
313.638
313.949
314.133
313.929
313.789
313.483
313.008
312.6
312.463
312.147
312.226
312.508
312.983
313.484
313.776
313.531
313.055
312.611
312.226
311.993
311.921
311.91
312.002
312.274
312.683
313.135
313.559
313.476
312.945
312.47
312.08
311.858
311.794
311.851
311.92
312.166
312.584
313.073
313.705
313.93
313.272
312.711
312.243
311.965
311.883
311.87
311.942
312.197
312.632
313.135
313.981
314.029
312.843
312.408
312.066
311.856
311.79
311.866
311.932
312.164
312.583
313.116
314.015
314.097
313.715
313.45
313.125
312.888
312.81
313.412
313.45
313.565
313.743
313.906
314.111
314.055
313.973
313.836
313.643
313.508
313.465
313.497
313.545
313.699
313.891
313.986
313.923
313.704
313.96
313.924
313.741
313.565
313.504
312.987
312.947
312.79
312.464
311.958
311.279
311.19
311.896
312.435
312.788
312.96
313.005
312.92
312.862
312.612
312.025
311.011
309.392
309.569
311.333
312.193
312.665
312.851
312.891
312.607
312.515
312.143
311.398
310.355
309.194
309.099
310.007
311.027
311.861
312.308
312.423
312.366
312.284
311.936
311.229
310.292
309.245
309.727
310.949
311.613
312.076
312.294
312.345
312.295
312.274
312.16
311.891
311.464
310.132
310.415
311.728
311.962
312.033
312.036
312.034
311.557
311.58
311.63
311.69
311.669
310.694
310.832
311.55
311.518
311.421
311.385
311.382
311.55
311.428
311.262
311.115
310.992
310.858
310.494
310.672
310.837
311.021
311.236
311.449
311.495
311.263
311.015
310.791
310.586
310.381
310.468
310.701
310.915
311.144
311.389
311.6
311.721
311.557
311.353
311.154
310.964
310.67
310.982
311.345
311.489
311.631
311.769
311.876
312.082
312.044
311.99
311.928
311.858
311.503
311.667
311.552
311.497
311.428
311.361
311.323
310.425
310.609
310.9
311.242
311.561
312.066
312.919
312.406
311.646
310.925
310.363
310.021
309.904
310.16
310.567
311.076
311.611
312.316
312.086
311.547
311.041
310.491
309.955
309.581
309.592
309.855
310.244
310.659
311.053
311.751
311.233
310.603
310.387
310.175
309.987
309.867
310.053
310.077
310.131
310.202
310.286
310.711
310.276
310.082
310.06
310.045
310.036
310.042
309.97
309.933
309.906
309.881
309.856
309.849
309.572
309.619
309.671
309.731
309.801
309.885
309.813
309.692
309.596
309.519
309.456
309.401
309.371
309.448
309.511
309.573
309.655
309.761
309.725
309.747
309.785
309.756
309.636
309.372
309.245
309.48
309.582
309.627
309.612
309.593
309.53
309.536
309.522
309.428
309.282
309.076
308.964
309.11
309.281
309.422
309.472
309.468
309.45
309.43
309.325
309.139
308.973
308.906
308.822
308.895
309.057
309.256
309.405
309.448
309.514
309.448
309.285
309.076
308.874
308.698
309.028
309.231
309.428
309.603
309.725
309.771
310.683
310.755
310.856
310.927
310.917
310.791
312.546
312.919
313.187
314.193
325.838
403.774
389.03
394.515
415.5
432.242
437.15
359.66
348.625
332.102
322.862
321.171
313.227
313.189
314.718
320.468
326.99
316.214
313.748
312.346
312.302
312.638
312.496
312.104
311.839
311.981
312.624
311.314
311.374
311.58
311.905
312.273
311.885
311.472
311.14
310.914
310.806
311.572
311.378
311.399
311.668
312.089
312.264
311.963
312.03
312.85
313.913
321.502
318.889
315.194
313.481
313.213
324.385
327.427
335.987
344.74
347.236
422.143
424.92
421.63
408.845
402.689
415.535
328.721
314.271
312.988
312.712
312.305
312.196
312.828
313.476
316.668
337.946
425.19
415.209
331.793
315.24
313.351
312.858
312.392
312.906
312.743
313.128
313.627
316.52
337.544
421.705
426.41
339.507
317.026
314.043
313.717
313.633
313.759
313.888
314.139
316.277
335.175
419.729
412.317
331.308
316.187
314.854
314.8
314.808
314.974
314.959
315.004
316.396
331.826
412.503
405.497
328.681
315.786
314.708
314.656
314.638
314.34
314.35
314.394
315.241
326.363
400.265
398.131
405.732
421.253
438.371
449.278
370.143
352.721
335.889
327.704
325.375
314.903
314.929
316.418
322.482
331.564
318.48
315.348
313.814
313.856
314.144
314.112
313.789
313.421
313.537
314.379
312.824
312.944
313.346
313.795
314.108
314.098
313.838
313.436
313.007
312.823
312.796
312.959
313.362
313.744
313.973
314.111
313.858
313.782
313.574
313.184
312.799
312.655
312.408
312.517
312.875
313.326
313.591
313.614
313.641
313.332
312.864
312.427
312.167
312.086
311.874
311.935
312.158
312.539
312.972
313.471
313.344
312.957
312.556
312.167
311.915
311.836
311.891
311.967
312.229
312.641
313.062
313.381
313.542
313.16
312.717
312.284
311.998
311.909
311.859
311.944
312.221
312.64
313.053
313.398
313.718
312.971
312.517
312.119
311.881
311.809
311.708
311.769
311.972
312.298
312.709
313.832
314.029
313.213
312.79
312.42
312.193
312.128
312.394
312.463
312.69
313.043
313.396
314.185
314.312
313.743
313.45
313.242
313.129
313.091
313.092
313.132
313.284
313.577
313.944
314.396
314.437
314.114
313.704
313.327
313.126
313.07
313.063
313.125
313.371
313.812
314.233
314.423
314.435
314.311
313.894
313.411
313.108
313.026
313.5
313.569
313.763
313.949
313.94
313.545
313.536
313.993
313.999
313.775
313.548
313.463
313.033
312.988
312.819
312.464
311.913
311.208
309.369
310.913
311.97
312.604
312.88
312.946
312.911
312.868
312.666
312.15
311.229
309.552
309.164
310.251
311.3
312.09
312.506
312.617
312.411
312.272
311.766
310.892
309.895
309.079
309.208
310.168
311.123
311.88
312.275
312.373
312.356
312.298
312.051
311.549
310.859
309.698
310.116
311.405
311.863
312.167
312.306
312.338
312.255
312.244
312.19
312.042
311.753
310.425
310.735
311.91
312.07
312.115
312.132
312.135
311.982
311.976
311.944
311.915
311.826
310.882
310.916
311.079
311.213
311.375
311.562
311.709
311.58
311.341
311.104
310.904
310.727
310.553
310.464
310.683
310.898
311.136
311.405
311.661
311.785
311.555
311.29
311.045
310.818
310.581
310.823
311.137
311.336
311.547
311.762
311.937
312.117
312.014
311.878
311.737
311.592
311.193
311.775
312.127
312.185
312.232
312.27
312.296
311.25
311.337
311.476
311.625
311.749
311.951
312.617
312.286
311.813
311.322
310.912
310.65
310.19
310.553
311.154
311.913
312.692
313.204
311.966
311.553
311.067
310.548
310.071
309.744
309.651
310.042
310.583
311.137
311.648
312.091
310.467
310.229
309.953
309.642
309.344
309.138
309.095
309.346
309.709
310.089
310.435
310.747
310.982
310.47
310.115
309.734
309.378
309.143
309.39
309.536
309.772
310.035
310.295
310.932
310.654
310.123
309.999
309.887
309.796
309.749
309.936
309.93
309.945
309.972
310.013
310.312
309.864
309.81
309.819
309.833
309.851
309.886
309.796
309.714
309.652
309.603
309.565
309.536
309.352
309.392
309.443
309.509
309.598
309.715
309.662
309.555
309.477
309.421
309.365
309.298
309.283
309.527
309.64
309.671
309.635
309.609
309.442
309.454
309.469
309.432
309.35
309.173
309.041
309.173
309.284
309.36
309.367
309.354
309.297
309.297
309.255
309.138
309.02
308.979
308.947
308.914
309.003
309.147
309.244
309.261
309.253
309.202
309.063
308.904
308.81
308.815
308.524
308.657
308.831
309.027
309.197
309.274
309.571
309.507
309.338
309.114
308.875
308.63
310.627
310.682
310.627
310.499
310.355
310.254
309.842
309.949
310.103
310.254
310.345
310.336
312.067
312.474
312.759
314.519
334.194
424.636
414.296
415.861
415.741
409.094
404.522
334.337
335.672
334.595
330.775
328.21
313.287
313.604
314.641
315.958
316.348
311.915
311.716
311.495
311.548
311.849
311.65
311.21
310.903
310.732
310.67
310.278
310.422
310.672
311.015
311.453
311.069
310.59
310.224
309.952
309.784
310.014
310.197
310.472
310.832
311.31
311.875
311.294
311.059
310.884
310.682
313.264
313.876
314.236
314.884
316.157
339.643
337.495
333.335
329.195
326.343
393.256
399.358
413.182
422.478
425.744
432.923
347.206
320.208
313.992
312.595
312.013
312.609
314.643
318.278
328.848
360.128
440.534
432.933
345.667
319.517
314.083
312.929
312.159
312.186
313.237
315.436
323.636
353.929
439.005
430.376
343.824
318.6
313.735
312.746
312.138
312.344
312.704
313.254
316.022
336.033
419.239
418.588
336.411
316.02
313.18
312.668
312.357
312.707
313.051
313.565
316.751
338.966
422.656
431.89
343.443
317.783
314.067
313.639
313.537
313.603
313.786
314.096
316.476
336.718
422.68
413.209
331.608
316.295
314.971
314.926
314.945
315.317
315.265
315.275
316.771
333.368
415.824
425.959
338.726
317.723
315.448
315.4
315.442
314.966
314.991
315.085
316.997
335.484
420.364
410.176
330.418
316.014
314.705
314.616
314.556
314.242
314.028
313.757
313.348
312.939
312.782
313.789
316.906
327.93
363.21
441.513
436.426
351.903
321.754
314.941
313.379
313.408
313.801
316.695
338.282
426.428
413.46
330.089
315.171
313.853
313.763
314.058
314.118
315.051
327.144
404.962
404.576
327.571
315.345
314.361
314.288
314.282
314.361
315.673
330.457
412.991
419.783
332.343
315.664
314.149
314.052
313.763
313.924
316.218
337.684
428.786
435.133
345.489
318.083
313.953
313.422
313.316
314.822
321.796
351.388
432.041
429.816
353.711
324.523
315.814
313.445
312.732
312.896
313.317
313.737
314.015
314.249
313.76
313.683
313.561
313.305
312.949
312.756
312.814
312.996
313.346
313.6
313.718
313.787
313.458
313.463
313.398
313.16
312.839
312.687
312.544
312.669
312.993
313.279
313.345
313.241
313.138
313.159
312.931
312.569
312.258
312.144
312.205
312.346
312.677
313.023
313.227
313.265
313.418
313.153
312.784
312.389
312.11
312.02
312.063
312.179
312.484
312.879
313.236
313.463
313.171
313.001
312.687
312.31
312.021
311.924
311.777
311.866
312.129
312.442
312.618
312.494
312.764
312.793
312.432
312.051
311.801
311.722
311.8
311.882
312.143
312.545
312.926
313.024
312.909
312.611
312.282
311.942
311.712
311.635
311.701
311.777
312.012
312.364
312.741
313.391
313.429
312.761
312.49
312.175
311.975
311.914
312.445
312.471
312.536
312.588
312.658
313.532
314.218
313.566
313.216
312.994
312.878
312.837
312.781
312.822
312.976
313.296
313.771
314.435
314.681
313.964
313.371
312.952
312.75
312.696
312.616
312.677
312.922
313.43
314.12
314.94
315.202
314.204
313.474
312.879
312.581
312.506
312.376
312.457
312.797
313.454
314.24
315.459
314.491
314.38
313.93
313.419
313.069
312.973
312.888
312.996
313.375
313.938
314.462
314.599
313.667
314.111
314.061
313.77
313.501
313.404
313.083
313.049
312.908
312.577
312.03
311.313
309.424
310.938
312.009
312.651
312.924
312.988
312.953
312.912
312.713
312.185
311.211
309.613
309.198
310.235
311.284
312.091
312.527
312.648
312.435
312.279
311.74
310.853
309.878
309.114
309.235
310.117
311.089
311.874
312.295
312.403
312.394
312.33
312.064
311.538
310.828
309.721
310.149
311.401
311.876
312.199
312.35
312.387
312.347
312.331
312.262
312.09
311.783
310.469
310.785
311.999
312.195
312.266
312.298
312.307
312.149
312.139
312.095
312.048
311.93
310.94
310.99
311.164
311.31
311.488
311.693
311.854
311.737
311.477
311.222
311.007
310.817
310.632
310.567
310.794
311.021
311.275
311.562
311.838
311.987
311.745
311.464
311.203
310.963
310.716
310.996
311.325
311.536
311.758
311.982
312.162
312.358
312.257
312.121
311.976
311.824
311.406
311.999
312.348
312.398
312.429
312.44
312.439
311.6
311.722
311.901
312.096
312.255
312.338
312.965
312.757
312.242
311.713
311.274
310.995
310.449
310.789
311.343
312.035
312.754
313.33
311.811
311.437
311.004
310.559
310.165
309.904
309.31
309.43
309.627
309.842
310.029
310.15
310.193
310.022
309.821
309.584
309.347
309.184
308.714
308.792
308.941
309.103
309.246
309.36
309.497
309.389
309.226
309.023
308.818
308.684
308.729
308.911
309.176
309.436
309.646
309.779
310.164
309.85
309.588
309.287
308.992
308.802
309.021
309.165
309.4
309.656
309.897
310.408
310.407
309.871
309.731
309.599
309.489
309.434
309.797
309.792
309.813
309.848
309.9
310.253
309.878
309.76
309.755
309.757
309.77
309.803
309.706
309.63
309.577
309.541
309.517
309.506
309.314
309.341
309.378
309.432
309.511
309.623
309.56
309.457
309.386
309.338
309.293
309.241
309.212
309.421
309.52
309.549
309.515
309.496
309.28
309.297
309.316
309.291
309.235
309.127
309.044
309.09
309.156
309.208
309.207
309.194
309.134
309.139
309.108
309.028
308.981
309.04
309.033
308.91
308.915
309.002
309.079
309.096
309.071
309.023
308.904
308.799
308.775
308.849
308.393
308.484
308.623
308.802
308.976
309.065
309.324
309.254
309.065
308.818
308.568
308.339
308.148
308.335
308.566
308.81
309.003
309.073
309.449
309.546
309.682
309.819
309.913
309.941
309.488
309.45
309.378
309.282
309.189
309.117
309.049
309.116
309.355
309.682
310.129
311.176
311.799
310.227
309.637
309.261
309.046
308.983
309.267
309.472
309.806
310.301
311.29
314.536
311.478
309.992
309.577
309.345
309.794
310.061
310.893
314.51
320.343
334.279
324.182
316.093
313.569
313.48
338.33
336.993
344.67
356.493
368.868
448.254
442.813
435.407
424.462
425.929
444.331
435.836
436.008
439.953
443.958
362.219
353.506
348.596
348.561
357.788
319.419
316.926
317.902
323.228
332.144
321.171
314.527
310.962
310.283
310.425
309.216
309.347
309.761
311.592
315.87
311.725
310.174
309.567
309.284
309.071
308.756
308.824
309.05
309.448
310.321
314.329
318.64
330.591
339.264
352.178
379.715
450.782
454.995
387.817
362.594
350.551
341.663
325.304
319.889
331.985
344.53
365.357
400.965
462.541
450.382
378.54
343.759
327.532
319.851
314.119
315.619
325.2
335.182
354.002
390.27
457.841
447.382
370.479
336.283
322.544
316.895
313.189
313.358
317.482
323.641
338.269
373.557
449.703
440.342
355.701
324.292
315.554
313.244
312.193
312.13
312.648
313.489
318.27
344.157
430.792
429.166
342.326
317.641
313.535
312.968
312.492
312.638
312.921
313.354
315.844
334.969
416.477
421.223
337.725
316.541
313.664
313.23
312.946
313.501
313.62
314.033
317.415
341.817
430.239
420.344
335.094
316.193
314.056
313.722
313.481
315.046
315.012
315.045
316.153
330.073
410.223
414.79
332.643
316.82
315.521
315.572
315.662
315.955
315.804
315.756
317.912
338.892
426.792
434.249
344.808
319.237
315.973
315.933
316.088
315.544
315.477
315.605
318.828
343.72
432.431
424.07
337.964
317.492
315.154
315.036
315.049
314.612
314.623
314.71
316.195
331.71
413.061
412.296
331.596
316.161
314.666
314.544
314.452
314.077
313.871
313.624
313.227
312.798
312.622
312.882
314.106
319.052
338.87
409.296
412.173
339.981
318.637
313.928
312.976
313.284
313.731
317.48
341.372
422.351
426.463
338.841
316.352
313.858
313.668
313.949
314.079
315.707
333.32
420.328
413.539
330.866
315.669
314.3
314.176
314.142
314.299
316.186
335.588
424.703
430.201
344.657
319.876
314.876
314.033
313.778
314.766
320.232
346.516
429.664
418.887
340.496
317.825
313.738
313.23
312.803
313.435
316.825
333.266
401.042
394.477
329.781
316.045
313.223
312.613
312.54
312.722
313.172
313.591
313.853
314.049
313.521
313.416
313.319
313.098
312.785
312.612
312.657
312.817
313.135
313.35
313.422
313.464
313.335
313.366
313.337
313.144
312.842
312.683
312.552
312.665
312.964
313.196
313.207
313.03
312.636
312.91
312.783
312.537
312.296
312.193
312.282
312.432
312.734
312.98
313.039
312.933
312.221
312.526
312.576
312.39
312.13
312.017
312.005
312.117
312.397
312.646
312.695
312.44
312.707