/*--------------------------------*- C++ -*----------------------------------*\
| =========                 |                                                 |
| \\      /  F ield         | OpenFOAM: The Open Source CFD Toolbox           |
|  \\    /   O peration     | Version:  2212                                  |
|   \\  /    A nd           | Website:  www.openfoam.com                      |
|    \\/     M anipulation  |                                                 |
\*---------------------------------------------------------------------------*/
FoamFile
{
    version     2.0;
    format      ascii;
    arch        "LSB;label=32;scalar=64";
    class       volScalarField;
    location    "300";
    object      p;
}
// * * * * * * * * * * * * * * * * * * * * * * * * * * * * * * * * * * * * * //

dimensions      [0 2 -2 0 0 0 0];

internalField   nonuniform List<scalar> 
242672
(
0
0.0211709
0.0431798
0.0550128
0.0648795
0.0731048
0.079952
0.140206
0.131458
0.120964
0.10838
0.0932911
0.0588104
0.0614544
0.0947855
0.111158
0.124813
0.136203
0.145696
0.153673
0.144585
0.133684
0.120609
0.104933
0.115079
0.129667
0.141833
0.151973
0.160425
0.161334
0.152764
0.14248
0.130144
0.115353
0.115581
0.130542
0.143019
0.153421
0.16209
0.16272
0.153969
0.143469
0.130875
0.115773
0.115931
0.131152
0.143845
0.154427
0.163247
0.163321
0.162806
0.16219
0.16145
0.16056
0.15222
0.153014
0.153675
0.154224
0.154683
0.144318
0.143927
0.143457
0.142893
0.142216
0.130209
0.130747
0.131197
0.131573
0.131883
0.116966
0.11675
0.116488
0.116176
0.115804
0.0797023
0.0799181
0.0800997
0.080251
0.0803764
0.0177345
0.0176916
0.0176389
0.017575
0.0174983
0.011493
0.0219685
0.0269774
0.0270731
0.0271535
0.0272207
0.0272765
0.00357941
0.00353506
0.00348238
0.00342128
0.00334684
0.0010625
0.0297867
0.0533924
0.0667732
0.0779337
0.0872414
0.0949948
0.101158
0.101825
0.10237
0.102828
0.103218
0.0954651
0.0951268
0.0947157
0.0942271
0.0936407
0.0846145
0.0851195
0.0855392
0.085885
0.0861745
0.0750291
0.0747981
0.074518
0.0741854
0.0737868
0.0608026
0.061078
0.0613069
0.0614957
0.0616537
0.0341476
0.0340562
0.0339449
0.0338126
0.033652
0.0770587
0.0771801
0.077283
0.0773694
0.0774394
0.0705026
0.0731331
0.108249
0.124306
0.13769
0.148848
0.15815
0.155613
0.14555
0.133476
0.118996
0.101619
0.06412
0.0636814
0.102245
0.119994
0.134785
0.147114
0.15739
0.159723
0.149844
0.137993
0.123776
0.106715
0.112569
0.128132
0.141102
0.151911
0.160919
0.161626
0.152553
0.141665
0.128601
0.112926
0.113226
0.128993
0.142133
0.153085
0.162212
0.162699
0.153527
0.142522
0.12932
0.113476
0.113684
0.129591
0.142848
0.153897
0.163105
0.163049
0.153617
0.1423
0.128723
0.112429
0.11226
0.128509
0.142048
0.153336
0.162743
0.162375
0.153001
0.141751
0.128254
0.112059
0.111815
0.127948
0.141393
0.152597
0.161933
0.161401
0.15211
0.140961
0.12758
0.111523
0.105914
0.123314
0.137812
0.149894
0.159964
0.157342
0.146971
0.134528
0.119598
0.101682
0.0624018
0.0685091
0.0725035
0.0726824
0.0728293
0.0729515
0.0730548
0.0105291
0.0105019
0.01047
0.010433
0.0103864
0.00373695
0.00649502
0.0131596
0.0132189
0.013267
0.0133091
0.0133427
-0.0635154
-0.0635178
-0.0635228
-0.0635277
-0.063534
-0.0687117
-0.0632387
-0.0588879
-0.0588775
-0.0588683
-0.0588601
-0.0588541
-0.05571
-0.0557305
-0.0557551
-0.0557857
-0.0558252
-0.0598872
-0.0502488
-0.0403904
-0.0328524
-0.0265636
-0.0213256
-0.0169539
-0.0162567
-0.0159371
-0.0156733
-0.0154631
-0.0152897
-0.0194162
-0.0196153
-0.019851
-0.0201361
-0.0204777
-0.0255203
-0.0251508
-0.0248431
-0.0245874
-0.0243737
-0.0303264
-0.0305594
-0.0308415
-0.0311777
-0.0315835
-0.0388462
-0.0383949
-0.0380222
-0.0377092
-0.0374502
-0.0478758
-0.0480298
-0.0482144
-0.0484372
-0.0487029
-0.14384
-0.143574
-0.143353
-0.143171
-0.14302
-0.138748
-0.139033
-0.139379
-0.139797
-0.140294
-0.137599
-0.13721
-0.136889
-0.136621
-0.136396
-0.134446
-0.134613
-0.134816
-0.135059
-0.135345
-0.133471
-0.133253
-0.133077
-0.132934
-0.132814
-0.131451
-0.131535
-0.131645
-0.131765
-0.131907
-0.13211
-0.133733
-0.135681
-0.138027
-0.140837
-0.14532
-0.14728
-0.140715
-0.137994
-0.135732
-0.133838
-0.132256
-0.0189762
-0.0232776
-0.0284145
-0.034591
-0.0419889
-0.0532237
0.0241613
0.0455771
0.0587509
0.0697341
0.0788949
0.0865165
0.00688119
0.026118
0.0154618
0.0020779
-0.0108241
0.00529045
0.00830183
0.00395442
-9.30795e-05
-0.00247839
-0.00374967
0.0616614
0.101429
0.119415
0.134403
0.146892
0.157302
0.160037
0.149892
0.13772
0.123111
0.10558
0.111152
0.127401
0.140943
0.152227
0.16163
0.16208
0.15264
0.141311
0.127715
0.111402
0.111609
0.127976
0.141616
0.152983
0.162455
0.162769
0.153269
0.141869
0.128193
0.111781
0.111924
0.128374
0.142081
0.153508
0.16303
0.16302
0.153466
0.142001
0.128246
0.11174
0.111604
0.128072
0.141797
0.153237
0.162768
0.162468
0.152963
0.141556
0.127866
0.111442
0.111247
0.127618
0.141264
0.152636
0.162111
0.161681
0.152241
0.140913
0.12732
0.111011
0.105481
0.123049
0.13769
0.149888
0.160054
0.157299
0.146875
0.134366
0.119354
0.101338
0.0613622
0.0673703
0.0712491
0.0713835
0.0714952
0.0715863
0.0716612
0.00846585
0.00844634
0.00842166
0.00839137
0.00835521
0.00165348
0.00228405
0.00893351
0.00897318
0.00900481
0.00903065
0.00905273
-0.0680907
-0.0680932
-0.0680956
-0.0680981
-0.0681018
-0.0733198
-0.071717
-0.0665097
-0.0665048
-0.0665011
-0.0664973
-0.0664949
-0.156561
-0.156561
-0.156561
-0.156561
-0.156561
-0.160566
-0.158072
-0.154158
-0.154157
-0.154157
-0.154157
-0.154157
-0.150977
-0.150977
-0.150979
-0.150981
-0.150982
-0.154775
-0.1509
-0.147538
-0.147525
-0.147513
-0.147505
-0.147499
-0.24956
-0.249561
-0.249565
-0.249569
-0.249573
-0.251564
-0.248789
-0.247027
-0.246227
-0.245569
-0.245015
-0.244567
-0.245148
-0.245103
-0.245065
-0.245026
-0.244991
-0.245292
-0.245341
-0.245409
-0.245487
-0.245579
-0.246094
-0.245945
-0.245825
-0.245724
-0.245635
-0.246059
-0.246174
-0.24632
-0.246497
-0.246702
-0.247449
-0.247159
-0.24692
-0.246724
-0.246556
-0.247793
-0.247884
-0.247995
-0.248126
-0.248284
-0.354868
-0.354809
-0.35476
-0.354719
-0.354686
-0.354909
-0.35497
-0.355046
-0.355133
-0.355237
-0.355086
-0.355008
-0.354947
-0.354896
-0.35485
-0.354798
-0.354827
-0.354866
-0.354906
-0.354956
-0.354856
-0.354825
-0.354799
-0.354777
-0.354759
-0.354732
-0.354736
-0.354736
-0.354754
-0.354775
-0.353908
-0.353982
-0.354088
-0.354218
-0.354365
-0.354683
-0.354348
-0.352992
-0.352861
-0.352747
-0.352653
-0.352584
-0.243692
-0.244088
-0.244597
-0.245209
-0.24594
-0.249313
-0.249845
-0.245579
-0.244906
-0.244348
-0.243876
-0.2435
-0.132946
-0.134443
-0.136218
-0.138338
-0.140886
-0.148496
-0.055349
-0.0434903
-0.0366139
-0.0308685
-0.0260961
-0.0221057
-0.0248542
-0.0288537
-0.0336592
-0.039429
-0.0463395
-0.0592897
0.0169309
0.0391077
0.0504267
0.0598581
0.0677187
0.0742687
0.132391
0.124287
0.114565
0.1029
0.0889117
0.0552176
0.0564917
0.0945256
0.110125
0.12313
0.133968
0.142999
0.151383
0.141845
0.130401
0.116675
0.100206
0.0609221
0.0609259
0.100618
0.117262
0.131133
0.142693
0.152327
0.1524
0.142686
0.131028
0.11704
0.100256
0.05997
0.0594035
0.100103
0.116955
0.130999
0.142704
0.152458
0.15249
0.14272
0.130997
0.11693
0.10005
0.0591472
0.0590472
0.100032
0.116923
0.130999
0.142731
0.152505
0.157303
0.146874
0.134359
0.11934
0.101316
0.061234
0.0672047
0.0710628
0.0711932
0.0713024
0.0713933
0.0714694
0.111671
0.128198
0.14197
0.153447
0.163013
0.162766
0.15322
0.141768
0.128027
0.111536
0.111375
0.127822
0.141527
0.152949
0.162468
0.162111
0.152623
0.141238
0.127577
0.111183
0.110951
0.127281
0.14089
0.152231
0.161683
0.160053
0.149877
0.137668
0.123015
0.105431
0.105432
0.123017
0.13767
0.14988
0.160057
0.161684
0.152228
0.140885
0.127272
0.110938
0.111168
0.127567
0.141233
0.152621
0.162111
0.162469
0.152947
0.141522
0.127813
0.111361
0.111522
0.128018
0.141762
0.153217
0.162765
0.163011
0.153442
0.141963
0.128187
0.111656
0.0714808
0.0714034
0.0713112
0.071203
0.0710725
0.0672076
0.00130589
0.00805084
0.00808663
0.00811609
0.00814194
0.00816399
0.00820887
0.00818799
0.00816352
0.00813407
0.00809829
0.00137938
-0.0744508
-0.0692041
-0.0692005
-0.0691981
-0.0691955
-0.0691931
-0.0688654
-0.0688678
-0.0688703
-0.0688728
-0.0688752
-0.0741063
-0.162839
-0.158831
-0.158831
-0.15883
-0.158831
-0.158831
-0.158035
-0.158035
-0.158035
-0.158035
-0.158035
-0.162049
-0.259223
-0.256294
-0.256294
-0.256294
-0.256294
-0.256294
-0.255121
-0.255121
-0.255121
-0.255121
-0.255121
-0.258039
-0.256269
-0.253432
-0.253431
-0.253431
-0.253431
-0.253431
-0.25147
-0.25147
-0.251471
-0.251472
-0.251472
-0.254051
-0.356623
-0.355044
-0.355044
-0.355044
-0.355044
-0.355044
-0.354517
-0.354518
-0.35452
-0.354521
-0.354523
-0.355448
-0.459303
-0.459007
-0.459007
-0.459007
-0.459007
-0.459006
-0.460026
-0.460032
-0.46004
-0.460049
-0.46006
-0.460816
-0.460798
-0.460784
-0.460772
-0.460762
-0.460755
-0.460765
-0.460778
-0.460787
-0.460799
-0.460788
-0.460775
-0.460766
-0.46076
-0.460758
-0.460751
-0.460757
-0.460761
-0.460765
-0.460774
-0.460763
-0.46076
-0.460759
-0.460753
-0.460753
-0.563617
-0.563617
-0.563617
-0.563618
-0.563618
-0.563624
-0.563623
-0.563622
-0.56362
-0.56362
-0.563616
-0.563618
-0.563624
-0.563625
-0.563623
-0.563625
-0.563623
-0.563623
-0.563623
-0.56362
-0.563624
-0.563624
-0.563627
-0.563631
-0.563634
-0.562901
-0.562899
-0.562898
-0.562896
-0.562894
-0.561821
-0.561821
-0.561821
-0.561821
-0.561821
-0.561835
-0.562498
-0.562958
-0.562954
-0.562947
-0.562952
-0.562949
-0.561922
-0.561924
-0.561921
-0.56193
-0.561929
-0.561867
-0.458968
-0.458634
-0.458608
-0.458598
-0.45858
-0.458552
-0.45793
-0.45793
-0.457947
-0.457958
-0.457982
-0.458868
-0.35445
-0.352381
-0.352254
-0.352144
-0.352051
-0.351981
-0.351883
-0.351958
-0.35206
-0.352181
-0.352323
-0.354814
-0.250665
-0.245909
-0.245186
-0.244584
-0.244079
-0.243656
-0.133962
-0.135504
-0.137337
-0.139543
-0.142191
-0.150352
-0.15204
-0.143241
-0.140228
-0.137715
-0.135625
-0.133873
-0.026135
-0.0304684
-0.0356777
-0.0419235
-0.0494123
-0.0628281
0.0113694
0.033163
0.0446542
0.0542291
0.0621991
0.0688501
0.122553
0.11477
0.105433
0.0942295
0.0807916
0.0482969
0.0492673
0.085587
0.100411
0.112768
0.123066
0.13165
0.13275
0.123896
0.113272
0.100524
0.0852286
0.048262
0.0554105
0.0941203
0.110193
0.123589
0.134754
0.144057
0.144245
0.13486
0.123597
0.110084
0.0938697
0.0546396
0.0542167
0.0937896
0.110057
0.123615
0.134914
0.144329
0.144369
0.134942
0.123629
0.110055
0.0937657
0.0540249
0.0539464
0.0937536
0.110052
0.123634
0.134955
0.144388
0.144395
0.134959
0.123635
0.110047
0.0937454
0.0539158
0.0590135
0.100027
0.116922
0.131001
0.142735
0.152511
0.157308
0.146877
0.134359
0.11934
0.101314
0.0612077
0.0612023
0.101317
0.119342
0.134361
0.146879
0.15731
0.160058
0.14988
0.137669
0.123017
0.105432
0.110938
0.127272
0.140885
0.152228
0.161684
0.162111
0.152621
0.141233
0.127567
0.111168
0.111361
0.127813
0.141522
0.152947
0.162469
0.162765
0.153217
0.141762
0.128018
0.111522
0.111655
0.128187
0.141963
0.153442
0.163011
0.163011
0.153442
0.141964
0.128188
0.111656
0.111524
0.128019
0.141763
0.153217
0.162765
0.162469
0.152947
0.141522
0.127814
0.111364
0.111173
0.127569
0.141233
0.152621
0.162111
0.161684
0.152228
0.140885
0.127275
0.110942
0.105437
0.123019
0.137671
0.149882
0.160058
0.15731
0.14688
0.134362
0.119342
0.10132
0.0612103
0.0672146
0.0710851
0.0712156
0.0713238
0.0714135
0.0714885
0.00817819
0.00815857
0.00813389
0.00810335
0.00806889
0.00130557
0.0012934
0.00804724
0.00808166
0.0081122
0.00813824
0.00815902
-0.0693264
-0.0693276
-0.06933
-0.0693337
-0.0693362
-0.0746083
-0.0745759
-0.0693133
-0.0693096
-0.0693072
-0.0693048
-0.0693023
-0.159378
-0.159378
-0.159378
-0.159378
-0.159378
-0.163386
-0.16322
-0.159213
-0.159213
-0.159213
-0.159213
-0.159213
-0.257385
-0.257385
-0.257385
-0.257385
-0.257385
-0.260282
-0.259913
-0.256999
-0.256999
-0.256999
-0.256999
-0.256999
-0.358504
-0.358504
-0.358504
-0.358504
-0.358504
-0.360487
-0.359945
-0.357945
-0.357945
-0.357945
-0.357945
-0.357945
-0.357113
-0.357113
-0.357113
-0.357113
-0.357113
-0.359097
-0.357937
-0.356058
-0.356058
-0.356058
-0.356058
-0.356058
-0.459125
-0.459125
-0.459125
-0.459125
-0.459125
-0.460261
-0.459616
-0.458753
-0.458752
-0.458752
-0.458752
-0.458752
-0.561335
-0.561335
-0.561335
-0.561335
-0.561335
-0.561748
-0.662686
-0.662519
-0.662519
-0.662519
-0.662519
-0.662519
-0.662965
-0.662965
-0.662965
-0.662965
-0.662965
-0.662891
-0.663512
-0.663908
-0.663911
-0.66391
-0.663905
-0.663912
-0.664365
-0.664364
-0.664363
-0.664363
-0.664363
-0.664365
-0.664365
-0.664365
-0.664366
-0.664366
-0.664368
-0.664367
-0.664367
-0.664366
-0.664366
-0.664368
-0.664368
-0.664368
-0.664368
-0.664369
-0.664361
-0.664361
-0.664361
-0.66436
-0.66436
-0.663811
-0.663811
-0.663811
-0.663811
-0.663811
-0.763356
-0.763356
-0.763356
-0.763356
-0.763356
-0.76371
-0.76371
-0.76371
-0.76371
-0.763711
-0.763705
-0.763704
-0.763704
-0.763704
-0.763704
-0.763709
-0.763709
-0.763709
-0.763709
-0.76371
-0.763702
-0.763701
-0.763701
-0.763701
-0.763701
-0.763708
-0.763709
-0.763709
-0.763709
-0.76371
-0.763452
-0.763453
-0.763457
-0.763453
-0.763458
-0.763185
-0.762945
-0.763108
-0.763106
-0.763107
-0.763107
-0.763103
-0.663236
-0.663229
-0.66323
-0.663234
-0.663232
-0.66306
-0.663054
-0.663004
-0.663008
-0.663003
-0.663006
-0.66301
-0.561449
-0.561454
-0.561458
-0.561461
-0.561463
-0.561771
-0.562085
-0.561594
-0.561591
-0.561591
-0.561582
-0.56158
-0.457867
-0.457882
-0.457898
-0.457907
-0.457934
-0.459125
-0.45954
-0.458183
-0.458153
-0.458134
-0.458116
-0.458091
-0.35176
-0.35186
-0.35199
-0.352141
-0.352326
-0.355141
-0.251276
-0.246002
-0.245145
-0.244431
-0.243837
-0.243335
-0.242083
-0.242757
-0.243567
-0.244537
-0.245704
-0.251573
-0.152966
-0.143376
-0.139646
-0.136532
-0.133937
-0.13177
-0.024009
-0.0290064
-0.0350085
-0.0422026
-0.0508339
-0.0650988
0.00645292
0.0278237
0.0396194
0.0494475
0.0576236
0.0644455
0.110699
0.103561
0.0949999
0.0847272
0.072407
0.041504
0.0420016
0.0756704
0.0889611
0.10004
0.109274
0.116971
0.117915
0.109977
0.100453
0.0890271
0.0753172
0.0411065
0.0405572
0.0751749
0.0890048
0.100531
0.110134
0.11814
0.132985
0.124056
0.113338
0.100477
0.0850474
0.0476109
0.0472779
0.0850087
0.100484
0.113381
0.124129
0.133086
0.133131
0.124163
0.113403
0.100491
0.0849968
0.0471277
0.047064
0.0849844
0.100487
0.113407
0.124175
0.133148
0.133151
0.124177
0.113405
0.100481
0.0849741
0.0470349
0.047023
0.0849692
0.100478
0.113402
0.124175
0.133151
0.144397
0.134959
0.123635
0.110046
0.0937421
0.0539042
0.0590057
0.100027
0.116922
0.131001
0.142737
0.152513
0.152513
0.142737
0.131001
0.116922
0.100028
0.0590076
0.0590103
0.100029
0.116924
0.131004
0.142738
0.152514
0.15731
0.146883
0.134366
0.119345
0.101322
0.0612157
0.0672213
0.0710935
0.0712241
0.0713322
0.0714222
0.071497
0.111657
0.128188
0.141964
0.153442
0.163011
0.162765
0.153218
0.141764
0.128019
0.111525
0.111368
0.127816
0.141524
0.152948
0.162469
0.162111
0.152622
0.141234
0.12757
0.111177
0.110946
0.127276
0.140886
0.15223
0.161684
0.160058
0.149883
0.137672
0.123021
0.105442
0.105443
0.123023
0.137672
0.149883
0.160058
0.161684
0.152231
0.140887
0.127276
0.110946
0.111177
0.12757
0.141236
0.152623
0.162111
0.162469
0.152949
0.141525
0.127816
0.111368
0.111525
0.128019
0.141765
0.153219
0.162766
0.163011
0.153442
0.141964
0.128188
0.111657
0.0715011
0.0714264
0.0713364
0.0712283
0.0710977
0.0672247
0.00132238
0.00808885
0.00812463
0.00815408
0.00817997
0.00820074
0.0081924
0.00817174
0.00814566
0.00811653
0.00808172
0.0013152
-0.0746025
-0.0693218
-0.0693195
-0.0693169
-0.0693145
-0.069312
-0.0693226
-0.0693238
-0.0693262
-0.06933
-0.0693324
-0.0746092
-0.163474
-0.159463
-0.159463
-0.159463
-0.159463
-0.159463
-0.159443
-0.159443
-0.159443
-0.159443
-0.159443
-0.163453
-0.260557
-0.257677
-0.257677
-0.257677
-0.257678
-0.257677
-0.257582
-0.257582
-0.257582
-0.257582
-0.257582
-0.260469
-0.360986
-0.359043
-0.359043
-0.359042
-0.359043
-0.359043
-0.358846
-0.358846
-0.358846
-0.358846
-0.358846
-0.360807
-0.462149
-0.460931
-0.460931
-0.460931
-0.460931
-0.460931
-0.460658
-0.460658
-0.460658
-0.460658
-0.460658
-0.461896
-0.461505
-0.460251
-0.460251
-0.460251
-0.460251
-0.460251
-0.459709
-0.459709
-0.459709
-0.459709
-0.459709
-0.460946
-0.562368
-0.561684
-0.561684
-0.561684
-0.561684
-0.561684
-0.561386
-0.561386
-0.561386
-0.561386
-0.561386
-0.561998
-0.662747
-0.66246
-0.66246
-0.66246
-0.66246
-0.66246
-0.762432
-0.762432
-0.762432
-0.762432
-0.762432
-0.762549
-0.762559
-0.762506
-0.762506
-0.762506
-0.762506
-0.762506
-0.762817
-0.762817
-0.762817
-0.762817
-0.762817
-0.762744
-0.861787
-0.861835
-0.861835
-0.861835
-0.861835
-0.861835
-0.862136
-0.862136
-0.862136
-0.862136
-0.862136
-0.862333
-0.862332
-0.862332
-0.862332
-0.862332
-0.862332
-0.862332
-0.862332
-0.862332
-0.862332
-0.862326
-0.862325
-0.862325
-0.862325
-0.862325
-0.862331
-0.862331
-0.862331
-0.862332
-0.862332
-0.862332
-0.862331
-0.862331
-0.862331
-0.862331
-0.960608
-0.960608
-0.960608
-0.960609
-0.960609
-0.960609
-0.960609
-0.960608
-0.960608
-0.960608
-0.960609
-0.960609
-0.960609
-0.960609
-0.960609
-0.960609
-0.960609
-0.960609
-0.960609
-0.960609
-0.960605
-0.960605
-0.960605
-0.960605
-0.960605
-0.96052
-0.96052
-0.96052
-0.96052
-0.96052
-0.96037
-0.96037
-0.96037
-0.96037
-0.96037
-0.96034
-0.960483
-0.960562
-0.960565
-0.960565
-0.960565
-0.960565
-0.960519
-0.960519
-0.960522
-0.960516
-0.960517
-0.960446
-0.861957
-0.862079
-0.86208
-0.862073
-0.862076
-0.862076
-0.862149
-0.862149
-0.862152
-0.862154
-0.862149
-0.862077
-0.76303
-0.763084
-0.763082
-0.763082
-0.763085
-0.763082
-0.763514
-0.763522
-0.763514
-0.76352
-0.763517
-0.763481
-0.663462
-0.663331
-0.663333
-0.663327
-0.663327
-0.663336
-0.66422
-0.664212
-0.664214
-0.664223
-0.664218
-0.664306
-0.562733
-0.5622
-0.562197
-0.562197
-0.562187
-0.562187
-0.563249
-0.563256
-0.563261
-0.563266
-0.563271
-0.56373
-0.460045
-0.4586
-0.458551
-0.458514
-0.458479
-0.458452
-0.351325
-0.351482
-0.351664
-0.351884
-0.352145
-0.355298
-0.355443
-0.351909
-0.351481
-0.351123
-0.350834
-0.350568
-0.240088
-0.241054
-0.242219
-0.243612
-0.245289
-0.251894
-0.153942
-0.143284
-0.138386
-0.134294
-0.130882
-0.128043
-0.0143518
-0.0202802
-0.0273989
-0.0359331
-0.046171
-0.06429
0.00428262
0.0276565
0.0397019
0.0497389
0.0580979
0.0650679
0.0982346
0.0921418
0.0848363
0.0760698
0.0655549
0.0375057
0.0375245
0.0666853
0.0775649
0.0866344
0.0941953
0.100497
0.100872
0.0944378
0.0867103
0.0774406
0.0663184
0.0367509
0.036271
0.0661895
0.0773974
0.0867381
0.0945214
0.101007
0.101067
0.0945633
0.0867616
0.0773971
0.0661606
0.0360324
0.0402793
0.0751435
0.0890128
0.100573
0.110203
0.118231
0.118266
0.110231
0.100589
0.089016
0.0751294
0.0401535
0.0400959
0.075112
0.0890081
0.100589
0.110238
0.118278
0.11828
0.110235
0.100584
0.0890007
0.0751011
0.0400681
0.0400571
0.0750962
0.088995
0.100577
0.110232
0.118278
0.118273
0.110229
0.100572
0.0889901
0.0750913
0.0400493
0.0470155
0.0849657
0.100475
0.1134
0.124173
0.13315
0.144397
0.134959
0.123635
0.110046
0.0937408
0.0539004
0.0538983
0.0937394
0.110046
0.123635
0.134959
0.144397
0.144397
0.134959
0.123635
0.110046
0.0937393
0.0538991
0.0590122
0.10003
0.116926
0.131006
0.142739
0.152514
0.15731
0.146884
0.134368
0.119348
0.101325
0.0612188
0.0612221
0.101327
0.11935
0.134368
0.146884
0.15731
0.160058
0.149883
0.137672
0.123023
0.105444
0.110946
0.127276
0.140887
0.152231
0.161684
0.162111
0.152623
0.141236
0.12757
0.111177
0.111368
0.127816
0.141525
0.152949
0.162469
0.162766
0.153219
0.141765
0.128019
0.111525
0.111657
0.128188
0.141964
0.153442
0.163011
0.163011
0.153442
0.141964
0.128189
0.111658
0.111525
0.128019
0.141765
0.153219
0.162766
0.162469
0.15295
0.141525
0.127816
0.111368
0.111177
0.127571
0.141236
0.152623
0.162111
0.161684
0.152231
0.140888
0.127276
0.110946
0.105446
0.123023
0.137672
0.149883
0.160058
0.15731
0.146884
0.134368
0.11935
0.101329
0.0612238
0.0672307
0.0711014
0.071232
0.0713402
0.0714288
0.071505
0.0082069
0.008186
0.00816131
0.00813072
0.00809632
0.00133048
0.00132763
0.00809331
0.00812871
0.00815957
0.0081841
0.00820382
-0.069299
-0.0693003
-0.0693027
-0.0693064
-0.0693101
-0.0745923
-0.0745972
-0.0693158
-0.0693121
-0.0693096
-0.0693072
-0.0693047
-0.159466
-0.159466
-0.159466
-0.159466
-0.159466
-0.163477
-0.163477
-0.159466
-0.159466
-0.159466
-0.159466
-0.159466
-0.257737
-0.257737
-0.257737
-0.257737
-0.257737
-0.260612
-0.260597
-0.257719
-0.257719
-0.257719
-0.257719
-0.257719
-0.359206
-0.359206
-0.359206
-0.359206
-0.359206
-0.361132
-0.361083
-0.35915
-0.35915
-0.35915
-0.35915
-0.35915
-0.461207
-0.461207
-0.461207
-0.461207
-0.461207
-0.462394
-0.462303
-0.461103
-0.461103
-0.461103
-0.461103
-0.461103
-0.562626
-0.562626
-0.562626
-0.562626
-0.562626
-0.563277
-0.563157
-0.562493
-0.562493
-0.562493
-0.562493
-0.562493
-0.562291
-0.562291
-0.562291
-0.562291
-0.562291
-0.562974
-0.56271
-0.562017
-0.562017
-0.562017
-0.562017
-0.562017
-0.662795
-0.662795
-0.662795
-0.662795
-0.662795
-0.663127
-0.662931
-0.662602
-0.662602
-0.662602
-0.662602
-0.662602
-0.762497
-0.762497
-0.762497
-0.762497
-0.762497
-0.762632
-0.861665
-0.86162
-0.86162
-0.86162
-0.86162
-0.86162
-0.861593
-0.861593
-0.861593
-0.861593
-0.861593
-0.861631
-0.861658
-0.861649
-0.861649
-0.861649
-0.861649
-0.861649
-0.960274
-0.960274
-0.960274
-0.960274
-0.960274
-0.960267
-1.0586
-1.05861
-1.05861
-1.05861
-1.05861
-1.05861
-1.05866
-1.05866
-1.05866
-1.05866
-1.05866
-1.05863
-1.0587
-1.05873
-1.05873
-1.05873
-1.05873
-1.05873
-1.05876
-1.05876
-1.05876
-1.05876
-1.05876
-1.05876
-1.05876
-1.05876
-1.05876
-1.05876
-1.05876
-1.05876
-1.05876
-1.05876
-1.05876
-1.05876
-1.05876
-1.05876
-1.05876
-1.05876
-1.05876
-1.05876
-1.05876
-1.05876
-1.05876
-1.05872
-1.05872
-1.05872
-1.05872
-1.05872
-1.15685
-1.15685
-1.15685
-1.15685
-1.15685
-1.15687
-1.15687
-1.15687
-1.15687
-1.15687
-1.15687
-1.15687
-1.15686
-1.15686
-1.15686
-1.15686
-1.15686
-1.15686
-1.15686
-1.15687
-1.15687
-1.15686
-1.15686
-1.15686
-1.15686
-1.15686
-1.15686
-1.15686
-1.15686
-1.15687
-1.15683
-1.15683
-1.15683
-1.15683
-1.15683
-1.15682
-1.15674
-1.15674
-1.15675
-1.15675
-1.15674
-1.15675
-1.05869
-1.05869
-1.05869
-1.05869
-1.05869
-1.05865
-1.05865
-1.05868
-1.05868
-1.05867
-1.05868
-1.05868
-0.960587
-0.960591
-0.960587
-0.960584
-0.960589
-0.960534
-0.960796
-0.960863
-0.960864
-0.960858
-0.960865
-0.960861
-0.862566
-0.86257
-0.862572
-0.862566
-0.86257
-0.862481
-0.863274
-0.86345
-0.863443
-0.863449
-0.863449
-0.86345
-0.764507
-0.764514
-0.76451
-0.764512
-0.764511
-0.764388
-0.765924
-0.766261
-0.766257
-0.766263
-0.766257
-0.766261
-0.665784
-0.665786
-0.665787
-0.665789
-0.665786
-0.665699
-0.667841
-0.668268
-0.668266
-0.668265
-0.668263
-0.668262
-0.564867
-0.564879
-0.564885
-0.564897
-0.564909
-0.565189
-0.460699
-0.459185
-0.4591
-0.459035
-0.45897
-0.458935
-0.459537
-0.459609
-0.459718
-0.459843
-0.459994
-0.461589
-0.355709
-0.351643
-0.350959
-0.350389
-0.349919
-0.349514
-0.237784
-0.23918
-0.240859
-0.242862
-0.245281
-0.25278
-0.156915
-0.145044
-0.138777
-0.133547
-0.129184
-0.125546
-0.0153643
-0.0217875
-0.0295058
-0.0387622
-0.0498703
-0.0708066
-0.0287772
0.00311398
0.0174392
0.0293803
0.0393403
0.0476362
0.0736237
0.0662356
0.0573825
0.0467821
0.0340867
0.00773278
0.00765361
0.0361207
0.0495396
0.0607439
0.0700997
0.0779084
0.0779422
0.0699382
0.0603399
0.0488212
0.035003
0.00636317
0.00569797
0.0346699
0.0486011
0.0602058
0.0698748
0.0779335
0.0779329
0.069857
0.0601654
0.0485321
0.0345675
0.00538977
0.00525789
0.0345285
0.0485011
0.0601423
0.0698394
0.07792
0.101084
0.0945753
0.0867659
0.077393
0.0661447
0.0359262
0.0358749
0.0661263
0.0773814
0.0867584
0.0945726
0.101084
0.101079
0.0945673
0.0867484
0.0773675
0.0661107
0.0358477
0.0358341
0.066102
0.0773587
0.0867406
0.0945602
0.101074
0.101069
0.0945551
0.0867355
0.0773537
0.0660971
0.0358266
0.0358229
0.0660952
0.077352
0.0867333
0.0945524
0.101067
0.118271
0.110227
0.100572
0.0889901
0.0750888
0.0400445
0.0470107
0.0849634
0.100476
0.1134
0.124174
0.13315
0.13315
0.124174
0.1134
0.100476
0.0849634
0.0470115
0.0470116
0.0849634
0.100476
0.1134
0.124174
0.13315
0.144397
0.134959
0.123635
0.110046
0.0937394
0.0538992
0.0590125
0.100031
0.116928
0.131006
0.142739
0.152514
0.152514
0.142739
0.131006
0.116928
0.100031
0.0590131
0.0590132
0.100031
0.116928
0.131006
0.142739
0.152514
0.15731
0.146885
0.134368
0.11935
0.101329
0.0612239
0.0672308
0.0711015
0.0712321
0.0713403
0.071429
0.0715051
0.111658
0.128189
0.141964
0.153443
0.163011
0.162766
0.153219
0.141766
0.128019
0.111525
0.111368
0.127816
0.141525
0.15295
0.162469
0.162111
0.152624
0.141236
0.127571
0.111177
0.110946
0.127276
0.140888
0.152231
0.161684
0.160058
0.149884
0.137673
0.123023
0.105446
0.105446
0.123023
0.137673
0.149884
0.160058
0.161684
0.152231
0.140888
0.127277
0.110947
0.111177
0.127571
0.141236
0.152624
0.162111
0.162469
0.15295
0.141525
0.127816
0.111368
0.111525
0.12802
0.141766
0.15322
0.162766
0.163011
0.153443
0.141964
0.128189
0.111658
0.0715053
0.0714291
0.0713405
0.0712323
0.0711017
0.0672309
0.001331
0.00809763
0.00813239
0.00816156
0.00818634
0.00820837
0.00820819
0.00818614
0.00816141
0.00813222
0.00809744
0.00133089
-0.0745894
-0.0693063
-0.0693039
-0.0693013
-0.069299
-0.0692965
-0.0692985
-0.0692997
-0.0693022
-0.0693058
-0.0693083
-0.0745899
-0.163476
-0.159465
-0.159465
-0.159465
-0.159465
-0.159465
-0.159467
-0.159467
-0.159467
-0.159467
-0.159467
-0.163477
-0.260621
-0.25775
-0.25775
-0.25775
-0.25775
-0.25775
-0.257747
-0.257747
-0.257747
-0.257747
-0.257747
-0.26062
-0.361166
-0.359246
-0.359246
-0.359246
-0.359246
-0.359246
-0.359232
-0.359232
-0.359232
-0.359232
-0.359232
-0.361155
-0.462469
-0.461292
-0.461292
-0.461292
-0.461292
-0.461292
-0.461265
-0.461265
-0.461265
-0.461265
-0.461265
-0.462443
-0.563392
-0.56276
-0.56276
-0.562759
-0.56276
-0.56276
-0.562712
-0.562712
-0.562712
-0.562712
-0.562712
-0.563351
-0.663552
-0.66326
-0.66326
-0.66326
-0.66326
-0.66326
-0.6632
-0.6632
-0.6632
-0.6632
-0.6632
-0.6635
-0.663417
-0.663106
-0.663106
-0.663106
-0.663106
-0.663106
-0.66297
-0.66297
-0.66297
-0.66297
-0.66297
-0.663292
-0.762834
-0.762707
-0.762707
-0.762707
-0.762707
-0.762707
-0.762605
-0.762605
-0.762605
-0.762605
-0.762605
-0.762739
-0.86172
-0.861679
-0.861679
-0.861679
-0.861679
-0.861679
-0.960279
-0.960279
-0.960279
-0.960279
-0.960279
-0.960287
-0.96026
-0.96025
-0.96025
-0.96025
-0.96025
-0.96025
-0.960241
-0.960241
-0.960241
-0.960241
-0.960241
-0.960248
-1.05859
-1.0586
-1.0586
-1.0586
-1.0586
-1.0586
-1.15681
-1.15681
-1.15681
-1.15681
-1.15681
-1.1568
-1.1568
-1.15682
-1.15682
-1.15682
-1.15682
-1.15682
-1.15683
-1.15683
-1.15683
-1.15683
-1.15683
-1.1568
-1.25491
-1.25496
-1.25496
-1.25496
-1.25496
-1.25496
-1.25496
-1.25496
-1.25496
-1.25496
-1.25496
-1.25496
-1.25496
-1.25496
-1.25496
-1.25496
-1.25496
-1.25496
-1.25496
-1.25496
-1.25496
-1.25496
-1.25496
-1.25496
-1.25496
-1.25496
-1.25496
-1.25496
-1.25496
-1.25496
-1.25496
-1.25496
-1.25496
-1.25496
-1.25496
-1.25496
-1.35306
-1.35306
-1.35306
-1.35306
-1.35306
-1.35306
-1.35306
-1.35306
-1.35306
-1.35306
-1.35306
-1.35306
-1.35306
-1.35306
-1.35306
-1.35306
-1.35306
-1.35306
-1.35306
-1.35306
-1.35306
-1.35306
-1.35306
-1.35306
-1.35306
-1.35307
-1.35307
-1.35307
-1.35307
-1.35307
-1.35307
-1.35307
-1.35307
-1.35307
-1.35307
-1.35301
-1.353
-1.353
-1.35299
-1.353
-1.35299
-1.353
-1.35283
-1.35282
-1.35283
-1.35283
-1.35283
-1.35284
-1.25478
-1.25478
-1.25477
-1.25478
-1.25478
-1.25478
-1.25455
-1.25454
-1.25455
-1.25455
-1.25455
-1.25458
-1.15663
-1.15662
-1.15662
-1.15662
-1.15662
-1.15662
-1.15643
-1.15643
-1.15643
-1.15642
-1.15643
-1.15646
-1.05871
-1.05873
-1.05873
-1.05873
-1.05873
-1.05873
-1.05886
-1.05886
-1.05887
-1.05886
-1.05887
-1.05884
-0.96131
-0.961429
-0.961434
-0.961429
-0.961429
-0.961429
-0.962425
-0.962433
-0.962429
-0.962429
-0.962429
-0.962196
-0.86463
-0.864991
-0.864993
-0.864988
-0.864991
-0.864995
-0.867511
-0.867517
-0.867508
-0.867518
-0.867514
-0.866797
-0.768348
-0.769082
-0.769083
-0.769088
-0.769081
-0.769088
-0.773373
-0.773379
-0.773374
-0.773376
-0.773374
-0.771944
-0.670955
-0.67194
-0.671935
-0.671931
-0.671924
-0.671929
-0.567162
-0.567182
-0.567195
-0.56722
-0.567243
-0.567232
-0.569823
-0.570233
-0.570179
-0.570128
-0.570095
-0.570063
-0.460091
-0.460247
-0.460445
-0.460675
-0.460959
-0.462714
-0.356266
-0.351466
-0.350335
-0.349394
-0.34861
-0.34796
-0.234904
-0.236917
-0.239329
-0.24222
-0.245693
-0.254296
-0.161757
-0.148433
-0.140512
-0.133898
-0.128383
-0.123778
-0.0292254
-0.0357511
-0.0435781
-0.0529728
-0.0642585
-0.0853831
-0.0473245
-0.0157376
-0.00324414
0.00717293
0.0158555
0.023095
0.0304662
0.0226128
0.0131903
0.00188416
-0.0116758
-0.0466267
-0.0300992
0.00591528
0.0217946
0.035031
0.046068
0.0552628
0.0554305
0.0459615
0.0345991
0.0209649
0.00460484
-0.0317406
-0.0325642
0.00413524
0.0206213
0.0343597
0.0458058
0.0553476
0.0553006
0.0457416
0.0342713
0.0205053
0.00398718
-0.0329361
-0.0331012
0.00392105
0.0204482
0.03422
0.0456976
0.0552638
0.0552344
0.0456656
0.0341857
0.0204106
0.00387679
-0.0331781
0.00519673
0.0344989
0.0484742
0.0601224
0.0698222
0.0779045
0.077892
0.0698075
0.0601054
0.0484523
0.0344739
0.00516258
0.00514333
0.0344592
0.0484394
0.0600926
0.0697951
0.077882
0.0778749
0.06979
0.0600858
0.0484343
0.0344524
0.00513477
0.0051294
0.0344468
0.0484317
0.06008
0.0697876
0.077872
0.0778716
0.069786
0.0600767
0.0484296
0.0344445
0.0051249
0.0358197
0.0660937
0.077352
0.0867328
0.0945503
0.101067
0.118271
0.110227
0.100572
0.0889901
0.0750888
0.0400438
0.0400426
0.0750888
0.0889902
0.100572
0.110227
0.118271
0.118271
0.110228
0.100572
0.0889902
0.0750889
0.0400426
0.0470117
0.0849635
0.100476
0.1134
0.124174
0.13315
0.144397
0.134959
0.123635
0.110046
0.0937395
0.0538996
0.0538997
0.0937396
0.110047
0.123635
0.134959
0.144397
0.144397
0.134959
0.123635
0.110047
0.0937398
0.0538998
0.0590134
0.100032
0.116928
0.131007
0.142739
0.152514
0.157311
0.146885
0.134369