/*--------------------------------*- C++ -*----------------------------------*\
| =========                 |                                                 |
| \\      /  F ield         | OpenFOAM: The Open Source CFD Toolbox           |
|  \\    /   O peration     | Version:  2212                                  |
|   \\  /    A nd           | Website:  www.openfoam.com                      |
|    \\/     M anipulation  |                                                 |
\*---------------------------------------------------------------------------*/
FoamFile
{
    version     2.0;
    format      ascii;
    arch        "LSB;label=32;scalar=64";
    class       volScalarField;
    location    "300";
    object      T;
}
// * * * * * * * * * * * * * * * * * * * * * * * * * * * * * * * * * * * * * //

dimensions      [0 0 0 1 0 0 0];

internalField   nonuniform List<scalar> 
242672
(
305.502
306.199
306.625
306.728
306.739
306.694
306.665
306.586
306.606
306.652
306.66
306.585
306.244
306.358
306.585
306.695
306.712
306.668
306.642
306.682
306.705
306.736
306.726
306.697
306.871
306.767
306.728
306.678
306.65
306.668
306.696
306.741
306.78
306.92
306.946
306.773
306.749
306.713
306.679
306.7
306.734
306.767
306.783
306.962
306.986
306.799
306.791
306.761
306.721
306.091
306.071
306.075
306.094
306.137
306.138
306.094
306.074
306.072
306.091
306.06
306.037
306.04
306.062
306.109
306.113
306.077
306.066
306.067
306.084
306.456
306.43
306.42
306.409
306.394
307.235
307.388
307.463
307.501
307.533
307.516
307.468
307.377
307.197
306.889
306.001
306.108
306.915
307.186
307.339
307.414
307.455
307.398
307.36
307.295
307.166
306.932
306.227
306.723
306.801
306.857
306.874
306.827
306.774
306.814
306.845
306.877
306.907
306.94
307.036
306.996
306.961
306.925
306.887
306.985
307.027
307.062
307.093
307.127
307.199
307.163
307.131
307.091
307.037
307.07
307.147
307.196
307.23
307.262
307.354
307.317
307.274
307.204
307.088
307.142
307.28
307.354
307.395
307.429
306.693
306.744
306.487
306.327
306.365
306.37
306.363
306.417
306.428
306.447
306.425
306.399
306.192
305.922
306.17
306.103
306.04
305.993
305.973
305.812
305.842
305.958
306.21
306.5
306.637
306.175
305.789
305.557
305.49
305.409
305.492
305.755
306.178
306.688
306.713
306.175
305.73
305.448
305.349
305.325
305.428
305.717
306.173
306.724
306.748
306.189
305.728
305.435
305.328
305.521
305.633
305.935
306.404
306.959
306.933
306.387
305.926
305.628
305.514
305.559
305.663
305.949
306.394
306.919
306.891
306.403
305.987
305.721
305.624
305.718
305.797
306.029
306.396
306.818
306.575
306.363
306.125
305.962
305.903
305.804
305.83
305.911
306.011
306.048
305.641
306.56
307.366
307.623
307.749
307.807
307.847
307.648
307.58
307.438
307.159
306.714
305.697
305.921
306.85
307.201
307.415
307.523
307.577
307.31
307.254
307.13
306.886
306.498
305.567
305.731
306.595
306.925
307.126
307.227
307.272
307.236
307.195
307.113
306.95
306.676
305.893
306.422
306.573
306.692
306.771
306.791
306.777
306.834
306.864
306.894
306.922
306.95
307.018
306.985
306.954
306.921
306.885
306.945
306.988
307.023
307.053
307.082
307.134
307.103
307.069
307.024
306.962
306.951
307.045
307.107
307.147
307.176
307.212
307.18
307.128
307.04
306.899
306.843
306.967
307.038
307.077
307.1
307.068
307.046
307.017
306.97
306.892
306.911
306.96
306.993
307.017
307.038
307
306.977
306.954
306.927
306.893
306.847
306.875
306.9
306.924
306.947
306.892
306.867
306.843
306.819
306.794
306.752
306.765
306.746
306.664
306.544
306.406
306.051
306.389
306.605
306.715
306.728
306.714
306.731
306.741
306.711
306.582
306.361
306.049
306.423
306.65
306.78
306.809
306.76
306.722
305.879
305.725
305.926
306.112
305.738
305.636
305.541
305.502
305.324
305.107
304.958
305.433
305.954
305.98
305.923
305.862
305.837
306.066
306.117
306.262
306.462
306.619
306.96
306.561
306.207
305.979
305.897
305.811
305.906
306.168
306.579
307.052
307.091
306.572
306.127
305.84
305.732
305.691
305.802
306.1
306.564
307.106
307.132
306.579
306.106
305.803
305.687
305.842
305.954
306.26
306.736
307.288
307.258
306.718
306.251
305.951
305.837
305.888
305.993
306.278
306.724
307.237
307.19
306.726
306.318
306.057
305.96
306.051
306.129
306.35
306.693
307.072
306.646
306.531
306.355
306.223
306.173
305.848
305.866
305.907
305.932
305.864
305.274
306.37
307.417
307.767
307.945
308.027
308.076
307.778
307.687
307.485
307.091
306.493
305.387
305.536
306.607
307.127
307.46
307.629
307.704
307.384
307.307
307.126
306.77
306.23
305.25
305.397
306.364
306.828
307.126
307.276
307.339
307.21
307.164
307.051
306.806
306.388
305.482
305.65
306.51
306.852
307.047
307.137
307.174
307.147
307.114
307.04
306.881
306.601
305.801
305.942
306.669
306.904
307.034
307.094
307.122
307.028
307.012
306.981
306.899
306.722
306.105
306.496
306.606
306.695
306.746
306.74
306.715
306.746
306.766
306.786
306.806
306.827
306.878
306.855
306.835
306.814
306.791
306.848
306.872
306.89
306.906
306.924
306.955
306.939
306.924
306.904
306.872
306.872
306.924
306.951
306.966
306.98
307.002
306.988
306.969
306.929
306.845
306.768
306.815
306.831
306.834
306.838
306.826
306.82
306.818
306.811
306.787
306.785
306.798
306.803
306.808
306.815
306.8
306.787
306.778
306.769
306.757
306.71
306.725
306.739
306.753
306.768
306.731
306.713
306.697
306.68
306.665
306.655
306.681
306.703
306.673
306.605
306.516
306.227
306.528
306.657
306.682
306.653
306.63
306.681
306.7
306.715
306.651
306.476
306.155
305.98
306.386
306.613
306.681
306.662
306.644
306.676
306.686
306.68
306.554
306.277
305.874
305.841
306.266
306.554
306.684
306.698
306.687
306.638
306.649
306.646
306.529
306.208
305.757
306.141
306.583
306.668
306.663
306.618
306.595
306.507
306.529
306.582
306.611
306.562
306.226
306.039
306.417
306.446
306.416
306.364
306.34
306.395
306.413
306.451
306.456
306.415
306.027
305.654
306.074
306.124
306.099
306.057
306.038
305.7
305.714
305.743
305.746
305.703
305.32
305.116
305.48
305.535
305.53
305.506
305.496
305.388
305.393
305.402
305.389
305.32
304.994
304.927
305.221
305.299
305.324
305.325
305.323
305.858
305.872
305.9
305.903
305.803
305.161
306.29
307.434
307.823
308.025
308.12
308.174
307.433
306.882
306.401
306.093
305.976
305.98
306.091
306.393
306.864
307.402
307.379
306.869
306.42
306.131
306.022
306.1
306.195
306.456
306.863
307.318
307.178
306.814
306.475
306.255
306.173
306.266
306.311
306.432
306.588
306.668
306.685
306.639
306.5
306.385
306.339
306.295
306.373
306.592
306.927
307.276
307.442
306.993
306.585
306.32
306.22
306.156
306.264
306.555
307.008
307.515
307.545
307.007
306.531
306.224
306.108
306.111
306.226
306.537
307.023
307.573
308.271
308.209
308.1
307.873
307.447
306.209
305.197
306.313
307.043
307.545
307.807
307.917
307.839
307.741
307.512
307.07
306.411
305.289
305.075
306.035
306.694
307.148
307.385
307.481
307.426
307.341
307.135
306.734
306.132
305.159
305.278
306.196
306.743
307.075
307.229
307.288
307.244
307.193
307.062
306.777
306.298
305.376
305.622
306.443
306.839
307.036
307.107
307.132
307.097
307.075
307.018
306.857
306.528
305.738
305.851
306.602
306.874
307.005
307.052
307.07
307.047
307.03
306.992
306.889
306.67
305.98
306.094
306.626
306.773
306.827
306.837
306.841
306.837
306.834
306.83
306.794
306.684
306.225
306.242
306.545
306.589
306.578
306.554
306.542
306.576
306.583
306.6
306.616
306.61
306.63
306.625
306.61
306.597
306.592
306.607
306.609
306.617
306.627
306.634
306.622
306.62
306.617
306.616
306.619
306.617
306.607
306.6
306.594
306.588
306.561
306.568
306.577
306.587
306.598
306.446
306.439
306.435
306.433
306.432
306.451
306.448
306.446
306.445
306.448
306.428
306.431
306.44
306.453
306.466
306.466
306.444
306.422
306.404
306.396
306.364
306.376
306.4
306.429
306.455
306.434
306.412
306.378
306.349
306.334
306.282
306.303
306.344
306.386
306.39
306.216
306.382
306.444
306.486
306.499
306.478
306.458
306.462
306.479
306.511
306.518
306.456
306.224
306.245
306.512
306.606
306.61
306.578
306.556
306.533
306.551
306.59
306.598
306.484
306.12
306.072
306.462
306.632
306.651
306.618
306.6
306.562
306.578
306.613
306.603
306.44
305.987
305.892
306.347
306.588
306.64
306.617
306.602
306.629
306.642
306.644
306.533
306.232
305.79
305.759
306.262
306.524
306.604
306.592
306.577
306.58
306.595
306.605
306.521
306.253
305.735
306.171
306.551
306.615
306.596
306.547
306.524
306.423
306.447
306.508
306.554
306.531
306.241
306.107
306.394
306.4
306.35
306.289
306.265
305.998
306.022
306.081
306.129
306.118
305.769
305.645
306.105
306.143
306.112
306.063
306.042
305.655
305.674
305.711
305.707
305.625
305.302
305.132
305.256
305.272
305.262
305.247
305.24
305.094
305.099
305.115
305.129
305.128
305.087
305.058
305.091
305.085
305.07
305.058
305.054
305.051
305.053
305.064
305.076
305.073
304.998
304.875
305.157
305.244
305.281
305.289
305.291
305.872
305.883
305.902
305.886
305.758
305.072
305.002
305.721
305.877
305.911
305.902
305.894
306.415
306.456
306.562
306.685
306.699
307.368
307.033
306.702
306.482
306.4
306.348
306.445
306.711
307.12
307.559
307.649
307.145
306.688
306.393
306.28
306.242
306.357
306.668
307.15
307.686
307.72
307.169
306.676
306.359
306.238
306.377
306.496
306.819
307.318
307.867
307.827
307.293
306.805
306.489
306.369
306.412
306.523
306.822
307.283
307.78
307.673
307.245
306.834
306.565
306.463
306.512
306.592
306.81
307.137
307.454
306.709
306.729
306.622
306.521
306.48
305.918
305.922
305.92
305.866
305.683
304.943
306.003
307.456
307.976
308.264
308.405
308.475
308.078
307.939
307.613
307.006
306.168
305.058
305.135
306.251
307.031
307.577
307.867
307.989
307.605
307.484
307.191
306.651
305.906
304.96
305.025
305.978
306.677
307.168
307.429
307.536
307.385
307.309
307.116
306.716
306.092
305.168
305.231
306.148
306.731
307.093
307.264
307.33
307.211
307.177
307.083
306.835
306.36
305.52
305.574
306.398
306.835
307.056
307.137
307.165
306.894
306.883
306.851
306.725
306.422
305.773
305.832
306.461
306.729
306.837
306.861
306.868
306.854
306.848
306.828
306.738
306.51
305.898
305.988
306.568
306.754
306.826
306.841
306.845
306.487
306.501
306.526
306.524
306.434
306.04
306.149
306.494
306.555
306.548
306.524
306.51
306.238
306.26
306.303
306.344
306.336
306.127
306.087
306.2
306.178
306.122
306.073
306.049
306.095
306.119
306.167
306.224
306.257
306.179
306.288
306.338
306.369
306.377
306.359
306.343
306.305
306.3
306.298
306.298
306.3
306.294
306.295
306.299
306.306
306.315
306.321
306.301
306.284
306.27
306.263
306.222
306.234
306.255
306.283
306.314
306.301
306.264
306.227
306.199
306.183
306.149
306.168
306.202
306.246
306.284
306.155
306.11
306.063
306.029
306.01
306.045
306.061
306.09
306.129
306.171
306.182
306.149
306.119
306.097
306.084
306.127
306.135
306.15
306.169
306.191
306.191
306.179
306.17
306.164
306.16
306.17
306.169
306.172
306.176
306.183
306.228
306.241
306.258
306.257
306.236
306.198
306.147
306.298
306.31
306.291
306.263
306.249
306.357
306.372
306.402
306.415
306.381
306.191
306.126
306.411
306.44
306.412
306.375
306.358
306.451
306.469
306.508
306.528
306.462
306.133
306.092
306.473
306.522
306.492
306.447
306.428
306.5
306.519
306.561
306.578
306.485
306.056
306.045
306.478
306.55
306.525
306.478
306.457
306.513
306.531
306.57
306.571
306.442
305.964
305.859
306.365
306.561
306.595
306.568
306.553
306.497
306.512
306.544
306.529
306.379
305.877
305.789
306.305
306.507
306.555
306.533
306.518
306.51
306.529
306.553
306.505
306.304
305.794
306.223
306.524
306.556
306.519
306.465
306.442
306.322
306.347
306.414
306.477
306.485
306.268
306.161
306.35
306.328
306.26
306.191
306.165
305.902
305.931
306.001
306.069
306.092
305.895
305.534
305.693
305.67
305.6
305.527
305.497
305.598
305.624
305.679
305.714
305.681
305.39
305.243
305.227
305.214
305.185
305.151
305.138
305.185
305.195
305.222
305.258
305.288
305.298
305.298
305.415
305.434
305.428
305.418
305.413
305.525
305.524
305.515
305.49
305.432
305.235
305.123
305.354
305.42
305.447
305.456
305.458
305.037
305.039
305.047
305.052
305.036
304.919
304.822
305.114
305.21
305.259
305.276
305.281
305.279
305.271
305.246
305.187
305.082
304.769
304.716
305.049
305.165
305.237
305.27
305.28
305.94
305.941
305.928
305.854
305.642
304.886
305.904
307.456
308.02
308.339
308.495
308.573
308.01
307.463
306.957
306.628
306.503
306.502
306.622
306.943
307.437
307.967
307.912
307.421
306.955
306.65
306.534
306.587
306.687
306.959
307.37
307.785
307.539
307.242
306.917
306.697
306.614
306.551
306.588
306.68
306.769
306.716
306.716
306.807
306.735
306.649
306.612
306.725
306.805
307.025
307.344
307.618
307.896
307.494
307.082
306.806
306.7
306.663
306.779
307.09
307.559
308.042
308.11
307.583
307.083
306.754
306.628
306.637
306.761
307.095
307.607
308.151
308.672
308.587
308.412
308.061
307.448
305.801
304.933
306.024
306.974
307.697
308.093
308.256
308.158
308.01
307.655
306.998
306.109
305.004
304.865
305.802
306.63
307.261
307.61
307.753
307.671
307.541
307.225
306.646
305.863
304.92
305.089
306.031
306.725
307.188
307.415
307.502
307.437
307.357
307.15
306.724
306.07
305.138
305.478
306.351
306.878
307.161
307.269
307.304
307.251
307.218
307.12
306.858
306.361
305.51
305.753
306.43
306.767
306.91
306.946
306.958
306.919
306.909
306.876
306.744
306.426
305.769
305.859
306.317
306.485
306.505
306.47
306.448
306.445
306.465
306.499
306.482
306.326
305.882
305.91
306.346
306.488
306.502
306.471
306.452
306.467
306.483
306.511
306.503
306.387
305.967
305.965
306.238
306.281
306.246
306.197
306.171
306.201
306.225
306.272
306.312
306.29
306.049
306.011
306.153
306.141
306.086
306.033
306.008
305.87
305.894
305.945
306.006
306.039
305.968
306.048
306.089
306.047
305.985
305.935
305.911
305.958
305.981
306.03
306.092
306.139
306.122
306.064
306.035
305.978
305.914
305.868
305.845
305.895
305.913
305.947
305.994
306.044
306.052
306.009
305.971
305.943
305.928
305.965
305.978
305.999
306.028
306.061
306.07
306.048
306.029
306.015
306.006
306.038
306.042
306.049
306.058
306.07
306.066
306.057
306.051
306.048
306.048
305.917
305.917
305.92
305.926
305.935
305.94
305.928
305.919
305.913
305.91
305.882
305.89
305.902
305.92
305.941
305.935
305.903
305.876
305.857
305.846
305.814
305.827
305.852
305.889
305.931
305.929
305.878
305.832
305.801
305.786
305.742
305.761
305.805
305.869
305.934
306.005
306.023
306.034
306.03
306.014
305.993
305.982
306.01
306.021
306.049
306.078
306.096
306.042
306.102
306.204
306.199
306.176
306.15
306.138
306.155
306.167
306.2
306.237
306.251
306.095
306.116
306.34
306.342
306.309
306.273
306.26
306.258
306.272
306.313
306.356
306.363
306.121
306.115
306.429
306.444
306.405
306.362
306.346
306.321
306.338
306.385
306.432
306.43
306.138
306.103
306.47
306.5
306.46
306.412
306.394
306.349
306.368
306.419
306.467
306.454
306.135
306.071
306.465
306.512
306.476
306.427
306.407
306.456
306.477
306.52
306.534
306.44
305.983
306.024
306.429
306.492
306.464
306.415
306.393
306.429
306.448
306.487
306.492
306.387
305.934
305.865
306.337
306.477
306.494
306.461
306.443
306.408
306.431
306.474
306.471
306.353
305.916
306.244
306.489
306.495
306.437
306.371
306.345
306.2
306.226
306.303
306.387
306.424
306.277
306.185
306.28
306.226
306.135
306.055
306.027
305.739
305.77
305.856
305.955
306.021
305.955
305.606
305.603
305.521
305.415
305.329
305.298
304.817
304.836
304.896
304.982
305.071
305.212
305.253
305.21
305.162
305.099
305.047
305.028
305.173
305.184
305.218
305.266
305.309
305.324
305.37
305.53
305.561
305.566
305.562
305.559
305.94
305.931
305.893
305.819
305.698
305.365
305.272
305.693
305.853
305.957
306.013
306.028
305.872
305.858
305.807
305.709
305.552
305.128
304.996
305.243
305.31
305.335
305.341
305.342
305.024
305.025
305.029
305.024
304.993
304.836
304.756
304.951
304.998
305.015
305.018
305.019
305.013
305.009
304.997
304.969
304.907
304.684
304.666
305.012
305.139
305.223
305.264
305.277
305.956
305.954
305.931
305.836
305.595
304.827
304.768
305.539
305.809
305.927
305.963
305.968
306.677
306.71
306.786
306.837
306.709
307.689
307.441
307.129
306.908
306.823
306.823
306.926
307.205
307.615
307.999
308.169
307.696
307.224
306.907
306.785
306.762
306.888
307.223
307.729
308.249
308.297
307.758
307.238
306.896
306.764
306.905
307.036
307.385
307.909
308.44
308.386
307.874
307.364
307.022
306.89
306.917
307.037
307.358
307.832
308.292
308.098
307.733
307.325
307.043
306.935
306.93
307.012
307.231
307.534
307.751
306.693
306.864
306.834
306.766
306.734
305.971
305.961
305.912
305.769
305.472
304.711
305.548
307.376
308.129
308.572
308.79
308.886
308.461
308.263
307.787
306.936
305.877
304.819
304.882
305.963
306.964
307.742
308.172
308.349
307.932
307.76
307.348
306.623
305.72
304.792
304.834
305.768
306.631
307.303
307.678
307.833
307.647
307.542
307.278
306.753
305.994
305.04
305.073
306.02
306.742
307.231
307.473
307.566
307.421
307.377
307.252
306.937
306.365
305.468
305.484
306.365
306.91
307.205
307.318
307.355
307.046
307.029
306.986
306.831
306.47
305.774
305.773
306.454
306.799
306.944
306.982
306.995
306.474
306.493
306.53
306.506
306.331
305.869
305.871
306.326
306.494
306.513
306.476
306.453
306.102
306.128
306.185
306.217
306.146
305.854
305.868
306.159
306.227
306.193
306.135
306.106
306.123
306.151
306.206
306.239
306.171
305.878
305.91
306.196
306.257
306.225
306.172
306.144
305.941
305.967
306.023
306.073
306.059
305.876
305.947
306.108
306.107
306.053
305.998
305.971
305.832
305.856
305.91
305.969
305.993
305.902
305.864
305.899
305.859
305.798
305.747
305.726
305.76
305.782
305.832
305.897
305.945
305.932
305.996
305.987
305.935
305.871
305.822
305.8
305.703
305.721
305.766
305.83
305.891
305.944
305.902
305.834
305.783
305.735
305.703
305.693
305.699
305.712
305.746
305.799
305.859
305.951
305.937
305.931
305.909
305.879
305.849
305.835
305.791
305.784
305.78
305.779
305.78
305.779
305.779
305.783
305.789
305.798
305.808
305.791
305.778
305.769
305.765
305.746
305.752
305.767
305.788
305.816
305.826
305.789
305.758
305.738
305.73
305.718
305.728
305.753
305.791
305.838
306.219
306.269
306.31
306.34
306.358
306.264
306.248
306.226
306.198
306.166
306.113
306.136
306.156
306.173
306.185
306.116
306.104
306.089
306.072
306.054
306
306.015
306.029
306.042
306.053
306.016
306.005
305.994
305.983
305.972
305.967
305.985
306.032
306.074
306.099
306.11
306.032
306.064
306.04
305.999
305.961
305.949
305.862
305.873
305.905
305.946
305.98
305.973
305.996
306.023
305.98
305.934
305.9
305.889
306.032
306.044
306.077
306.116
306.144
306.061
306.096
306.179
306.144
306.096
306.06
306.046
306.158
306.173
306.212
306.258
306.281
306.122
306.164
306.295
306.263
306.209
306.166
306.149
306.237
306.255
306.301
306.352
306.371
306.163
306.196
306.363
306.334
306.275
306.225
306.205
306.279
306.299
306.35
306.406
306.419
306.176
306.201
306.395
306.369
306.306
306.249
306.228
306.291
306.312
306.368
306.425
306.43
306.164
306.105
306.443
306.466
306.42
306.367
306.347
306.279
306.3
306.357
306.412
306.41
306.132
306.063
306.407
306.439
306.397
306.344
306.322
306.352
306.374
306.421
306.446
306.381
305.989
305.934
306.348
306.435
306.424
306.381
306.36
306.32
306.346
306.398
306.42
306.354
305.987
306.149
306.27
306.277
306.231
306.171
306.148
306.218
306.245
306.301
306.323
306.282
306.173
306.066
306.132
306.151
306.118
306.061
306.035
305.804
305.831
305.897
305.947
305.946
305.892
305.624
305.66
305.636
305.566
305.494
305.466
305.069
305.093
305.16
305.244
305.308
305.324
305.114
304.977
304.896
304.82
304.767
304.75
304.872
304.886
304.931
304.999
305.077
305.209
305.3
305.36
305.353
305.334
305.318
305.312
305.911
305.899
305.858
305.784
305.673
305.363
305.32
305.801
305.983
306.113
306.187
306.209
306.158
306.135
306.055
305.916
305.719
305.193
305.041
305.571
305.768
305.903
305.98
306.003
305.713
305.7
305.654
305.561
305.407
304.979
304.873
305.147
305.225
305.256
305.265
305.267
305.22
305.215
305.197
305.152
305.06
304.762
304.666
304.976
305.079
305.135
305.161
305.168
305
304.993
304.975
304.935
304.862
304.618
304.614
304.972
305.107
305.202
305.252
305.268
305.249
305.231
305.174
305.069
304.927
304.565
304.519
304.879
305.027
305.141
305.205
305.226
305.967
305.952
305.888
305.718
305.394
304.654
305.429
307.322
308.153
308.644
308.885
308.989
308.578
308.054
307.526
307.171
307.035
307.027
307.157
307.505
308.02
308.521
308.414
307.968
307.492
307.166
307.04
307.053
307.159
307.444
307.849
308.192
307.808
307.626
307.332
307.113
307.027
306.794
306.821
306.877
306.881
306.668
306.626
306.891
306.915
306.871
306.846
307.127
307.213
307.43
307.709
307.848
308.292
307.991
307.597
307.308
307.19
307.208
307.337
307.669
308.141
308.56
308.693
308.208
307.693
307.338
307.197
307.216
307.354
307.717
308.248
308.758
309.094
308.982
308.716
308.168
307.245
305.31
304.732
305.767
306.936
307.911
308.46
308.68
308.567
308.357
307.845
306.933
305.819
304.774
304.74
305.676
306.66
307.482
307.953
308.147
308.029
307.848
307.411
306.643
305.703
304.771
305.021
306.001
306.831
307.412
307.706
307.819
307.724
307.617
307.341
306.793
306.003
305.038
305.491
306.421
307.034
307.375
307.51
307.553
307.48
307.437
307.311
306.986
306.399
305.491
305.823
306.545
306.926
307.091
307.134
307.15
307.091
307.076
307.034
306.878
306.511
305.809
305.898
306.369
306.551
306.578
306.543
306.524
306.491
306.512
306.549
306.527
306.352
305.891
305.853
306.14
306.21
306.181
306.128
306.103
306.097
306.123
306.179
306.212
306.144
305.86
305.791
305.967
305.986
305.943
305.893
305.873
305.877
305.9
305.955
306.003
305.986
305.808
305.819
306.006
306.025
305.975
305.918
305.892
305.914
305.94
305.998
306.047
306.028
305.839
305.792
305.911
305.904
305.849
305.797
305.774
305.798
305.823
305.877
305.935
305.95
305.845
305.808
305.858
305.825
305.767
305.718
305.698
305.642
305.654
305.692
305.745
305.788
305.786
305.836
305.819
305.767
305.707
305.664
305.648
305.671
305.688
305.733
305.797
305.854
305.888
305.858
305.818
305.776
305.735
305.707
305.7
307.27
307.213
307.099
306.921
306.689
306.158
306.117
306.473
306.626
306.745
306.822
306.862
306.564
306.535
306.484
306.406
306.308
306.094
306.702
307.773
308.248
308.597
308.811
308.913
308.256
308.181
308.042
307.829
307.545
307.415
307.624
307.786
307.896
307.959
307.696
307.64
307.552
307.431
307.28
307.132
307.24
307.33
307.398
307.446
307.217
307.175
307.12
307.052
306.974
306.9
306.957
307.006
307.046
307.079
308.628
308.556
308.47
308.363
308.239
308.404
308.571
308.713
308.827
308.91
309.361
309.259
309.114
308.924
308.694
308.973
309.286
309.533
309.71
309.821
310.285
310.158
309.94
309.616
309.192
309.403
309.962
310.374
310.636
310.775
311.809
311.628
311.246
310.602
309.707
307.673
308.026
308.049
308.074
308.048
307.949
307.897
307.611
307.627
307.665
307.608
307.422
307.095
306.425
306.58
306.652
306.66
306.63
306.616
306.461
306.469
306.49
306.476
306.389
306.202
305.999
306.047
306.017
305.973
305.94
305.931
305.915
305.923
305.956
306.003
306.043
306.001
306.04
306.059
306.01
305.959
305.924
305.914
305.932
305.943
305.978
306.031
306.084
306.09
306.144
306.198
306.155
306.102
306.063
306.05
306.044
306.058
306.098
306.154
306.204
306.177
306.2
306.291
306.249
306.19
306.145
306.129
306.099
306.115
306.162
306.224
306.273
306.221
306.221
306.34
306.299
306.235
306.182
306.164
306.116
306.134
306.186
306.253
306.303
306.234
306.22
306.357
306.317
306.248
306.19
306.17
306.225
306.248
306.307
306.372
306.394
306.187
306.201
306.349
306.31
306.239
306.177
306.154
306.201
306.224
306.285
306.35
306.369
306.155
306.097
306.372
306.376
306.32
306.262
306.239
306.261
306.286
306.342
306.386
306.359
306.037
305.995
306.336
306.376
306.338
306.281
306.256
306.215
306.243
306.305
306.353
306.332
306.046
306.152
306.217
306.19
306.128
306.068
306.048
305.901
305.924
305.988
306.057
306.097
306.089
306.085
306.134
306.122
306.068
306.008
305.986
305.772
305.797
305.862
305.925
305.952
305.933
305.697
305.688
305.641
305.565
305.496
305.469
305.095
305.12
305.188
305.275
305.349
305.412
305.098
304.984
304.902
304.824
304.769
304.751
304.968
304.978
305.008
305.049
305.092
305.139
305.2
305.162
305.131
305.098
305.074
305.066
305.637
305.628
305.597
305.545
305.472
305.285
305.261
305.604
305.749
305.86
305.93
305.952
305.949
305.923
305.843
305.714
305.545
305.147
305.005
305.413
305.587
305.72
305.803
305.83
305.656
305.63
305.549
305.421
305.255
304.869
304.894
305.414
305.611
305.749
305.828
305.851
305.609
305.594
305.541
305.439
305.276
304.839
304.716
305.146
305.315
305.428
305.49
305.508
305.373
305.354
305.29
305.177
305.014
304.614
304.585
304.891
304.997
305.06
305.091
305.1
304.979
304.971
304.947
304.898
304.815
304.556
304.5
304.768
304.859
304.915
304.946
304.956
304.925
304.914
304.879
304.817
304.722
304.453
304.477
304.83
304.98
305.099
305.169
305.192
305.953
305.933
305.853
305.654
305.306
304.599
304.532
305.186
305.552
305.788
305.893
305.921
306.908
306.926
306.946
306.872
306.527
307.862
307.802
307.556
307.352
307.268
307.337
307.445
307.724
308.1
308.36
308.668
308.268
307.802
307.471
307.34
307.338
307.475
307.833
308.347
308.822
308.896
308.391
307.86
307.491
307.347
307.485
307.465
307.465
307.447
307.364
307.446
307.556
307.595
307.605
307.624
308
307.966
307.925
307.832
307.64
307.865
308.196
308.387
308.479
308.529
309.024
308.94
308.765
308.419
307.868
306.83
308.086
308.847
309.208
309.346
308.969
308.701
308.035
306.888
305.613
304.631
304.668
305.666
306.893
307.965
308.582
308.829
308.422
308.199
307.659
306.731
305.652
304.697
304.732
305.681
306.705
307.566
308.061
308.264
308.012
307.895
307.585
306.955
306.056
305.035
305.035
306.032
306.892
307.493
307.796
307.912
307.708
307.657
307.517
307.158
306.512
305.551
305.531
306.472
307.096
307.442
307.578
307.623
307.277
307.255
307.209
307.035
306.637
305.9
305.872
306.595
306.98
307.146
307.188
307.205
306.605
306.615
306.64
306.6
306.409
305.939
305.926
306.391
306.574
306.604
306.572
306.555
306.131
306.146
306.188
306.205
306.13
305.854
305.859
306.136
306.206
306.18
306.131
306.11
305.881
305.891
305.926
305.955
305.931
305.768
305.782
305.949
305.968
305.93
305.887
305.871
305.757
305.762
305.789
305.816
305.813
305.715
305.733
305.834
305.831
305.792
305.757
305.745
305.747
305.762
305.805
305.851
305.856
305.748
305.767
305.882
305.875
305.825
305.776
305.756
305.679
305.691
305.728
305.773
305.794
305.732
305.765
305.823
305.795
305.742
305.697
305.68
305.648
305.655
305.687
305.731
305.764
305.749
305.781
305.833
305.836
305.834
305.833
305.84
305.772
305.77
305.781
305.799
305.814
305.797
305.822
305.811
305.78
305.749
305.729
305.726
307.816
307.739
307.575
307.318
306.984
306.235
307.391
309.858
310.902
311.648
312.086
312.28
310.898
310.742
310.4
309.825
309.024
307.101
306.878
308.349
308.958
309.401
309.668
309.791
313.094
312.89
312.448
311.687
310.612
308.035
309.257
312.335
313.708
314.687
315.258
315.519
314.191
313.95
313.436
312.57
311.366
308.733
309.263
309.312
309.366
309.332
309.178
309.094
309.613
309.797
309.955
310.084
310.183
310.606
310.475
310.303
310.089
309.84
310.28
310.612
310.886
311.095
311.237
311.856
311.693
311.439
311.085
310.64
310.919
311.51
311.962
312.266
312.439
313.029
312.836
312.473
311.904
311.134
312.479
313.366
314.028
314.453
314.679
314.079
313.87
313.512
312.986
312.304
312.052
312.569
312.982
313.279
313.467
312.789
312.613
312.36
312.031
311.635
311.131
311.433
311.692
311.899
312.05
311.55
311.422
311.259
311.06
310.83
310.203
310.307
310.511
310.547
310.456
310.36
308.649
309.363
309.716
309.774
309.675
309.625
308.644
308.675
308.742
308.673
308.389
307.874
307.109
307.71
308.078
308.202
308.173
308.148
307.282
307.295
307.309
307.221
306.985
306.606
306.318
306.682
306.901
306.981
306.967
306.951
306.305
306.316
306.339
306.335
306.267
306.09
306.05
306.192
306.224
306.209
306.18
306.167
305.902
305.912
305.945
305.994
306.043
306.037
306.076
306.044
305.99
305.939
305.906
305.896
305.942
305.954
305.989
306.044
306.1
306.131
306.158
306.106
306.048
305.995
305.961
305.949
306.028
306.042
306.083
306.141
306.196
306.202
306.213
306.176
306.118
306.061
306.023
306.01
306.061
306.077
306.123
306.186
306.242
306.234
306.233
306.199
306.139
306.081
306.043
306.031
306.064
306.08
306.128
306.195
306.254
306.239
306.229
306.306
306.254
306.182
306.127
306.108
306.053
306.069
306.118
306.188
306.247
306.228
306.207
306.291
306.238
306.163
306.103
306.082
306.117
306.141
306.204
306.278
306.316
306.17
306.122
306.323
306.301
306.232
306.168
306.144
306.153
306.18
306.246
306.31
306.318
306.073
306.04
306.295
306.294
306.227
306.156
306.127
306.097
306.126
306.203
306.28
306.294
306.07
306.144
306.151
306.095
306.012
305.943
305.92
305.769
305.795
305.87
305.961
306.033
306.08
305.951
305.86
305.772
305.671
305.591
305.562
305.698
305.724
305.793
305.869
305.923
305.951
305.738
305.671
305.602
305.518
305.446
305.42
305.064
305.09
305.161
305.255
305.345
305.471
305.156
304.964
304.859
304.765
304.702
304.682
304.742
304.755
304.798
304.868
304.956
305.118
305.191
305.227
305.242
305.256
305.266
305.269
305.448
305.442
305.418
305.376
305.316
305.171
305.123
305.408
305.544
305.649
305.713
305.733
305.726
305.702
305.626
305.504
305.346
305.013
304.886
305.225
305.385
305.509
305.586
305.612
305.452
305.428
305.354
305.238
305.088
304.767
304.663
304.964
305.101
305.207
305.274
305.297
305.48
305.455
305.378
305.259
305.106
304.75
304.761
305.256
305.454
305.596
305.68
305.705
305.531
305.506
305.423
305.285
305.099
304.648
304.559
304.96
305.13
305.259
305.338
305.362
305.238
305.219
305.156
305.049
304.897
304.532
304.513
304.813
304.919
304.985
305.02
305.03
304.963
304.952
304.915
304.848
304.742
304.455
304.403
304.668
304.773
304.844
304.884
304.896
304.886
304.873
304.833
304.764
304.666
304.406
304.429
304.764
304.914
305.038
305.116
305.143
305.091
305.063
304.982
304.859
304.713
304.398
304.489
305.093
305.456
305.718
305.843
305.877
306.947
306.961
306.964
306.852
306.441
305.033
304.951
306.646
308.049
308.905
309.302
309.451
309.143
308.661
308.129
307.752
307.604
307.588
307.728
308.093
308.604
309.054
308.861
308.499
308.044
307.71