/*--------------------------------*- C++ -*----------------------------------*\
| =========                 |                                                 |
| \\      /  F ield         | OpenFOAM: The Open Source CFD Toolbox           |
|  \\    /   O peration     | Version:  2212                                  |
|   \\  /    A nd           | Website:  www.openfoam.com                      |
|    \\/     M anipulation  |                                                 |
\*---------------------------------------------------------------------------*/
FoamFile
{
    version     2.0;
    format      ascii;
    arch        "LSB;label=32;scalar=64";
    class       volScalarField;
    location    "30";
    object      p;
}
// * * * * * * * * * * * * * * * * * * * * * * * * * * * * * * * * * * * * * //

dimensions      [0 2 -2 0 0 0 0];

internalField   nonuniform List<scalar> 
248319
(
0
0.0192798
0.0402699
0.049912
0.057952
0.0646549
0.0702487
0.109354
0.103288
0.0960151
0.0872928
0.0768337
0.0510444
0.049835
0.0761387
0.0872724
0.0965689
0.104327
0.110798
0.081259
0.0763888
0.0706
0.0636716
0.0553453
0.0330923
0.0137207
0.0280108
0.0342244
0.0395251
0.0440903
0.0480645
0.0626295
0.0577914
0.0519934
0.0450541
0.0367447
0.0196828
-0.0539505
-0.0471901
-0.0434443
-0.0403198
-0.0376987
-0.0355222
-0.0212329
-0.0247008
-0.0288597
-0.0338378
-0.0398035
-0.0507649
-0.0555481
-0.0402202
-0.0334775
-0.0278621
-0.0231816
-0.0192649
0.0634657
0.0574262
0.0501776
0.0414865
0.0310647
0.000540943
0.0309072
0.0593129
0.0692859
0.0776006
0.0845285
0.0903076
0.100134
0.0944868
0.0877118
0.0795849
0.0698414
0.0358996
0.0499463
0.0749697
0.0847328
0.09287
0.0996539
0.105308
0.109525
0.103002
0.0951811
0.0858048
0.0745654
0.0473109
0.0190727
0.0397446
0.0463714
0.0518978
0.0565807
0.0606295
-0.0356344
-0.0383647
-0.0410949
-0.043823
-0.0465527
-0.0535747
-0.0515068
-0.0438576
-0.041469
-0.0392283
-0.0370898
-0.0350249
-0.140391
-0.1408
-0.141191
-0.14156
-0.141899
-0.145274
-0.14483
-0.141951
-0.14097
-0.140155
-0.139473
-0.1389
-0.132521
-0.133798
-0.135344
-0.137182
-0.139392
-0.144449
-0.145912
-0.139383
-0.13671
-0.134482
-0.132612
-0.131071
-0.133997
-0.135635
-0.137613
-0.139973
-0.142817
-0.150201
-0.0695862
-0.0525837
-0.045763
-0.040077
-0.0353437
-0.0313813
0.0473133
0.040693
0.0327522
0.0232211
0.0117943
-0.0194678
-0.00916369
0.0315379
0.0452739
0.056727
0.0662776
0.0742399
0.0901711
0.0833659
0.0752052
0.0654139
0.0536712
0.0104103
0.0096529
0.0523125
0.0641502
0.074017
0.0822402
0.0890964
0.0978771
0.092296
0.085599
0.0775621
0.06792
0.034476
0.048938
0.0735162
0.0833146
0.0914788
0.098282
0.103949
0.109471
0.102777
0.0947499
0.0851272
0.0735908
0.0456312
0.0147798
0.0354057
0.042191
0.047904
0.0527857
0.0570321
-0.0392432
-0.0419592
-0.0446769
-0.047395
-0.0501154
-0.0586975
-0.147628
-0.143322
-0.142604
-0.141886
-0.141168
-0.14045
-0.139449
-0.140152
-0.140852
-0.141551
-0.142249
-0.146194
-0.244004
-0.242359
-0.242286
-0.242213
-0.242141
-0.242067
-0.242974
-0.242962
-0.242928
-0.242868
-0.24277
-0.243767
-0.2433
-0.242393
-0.242267
-0.242159
-0.242074
-0.242006
-0.238685
-0.239008
-0.239389
-0.239854
-0.240405
-0.242617
-0.24287
-0.239818
-0.239098
-0.238495
-0.237996
-0.23757
-0.238133
-0.238601
-0.239164
-0.239832
-0.240632
-0.244237
-0.245673
-0.241515
-0.240538
-0.23973
-0.239046
-0.238488
-0.136232
-0.138076
-0.140294
-0.142949
-0.146137
-0.154332
-0.0774019
-0.0596858
-0.0525315
-0.0465657
-0.0416004
-0.0374541
0.034214
0.0274368
0.0193029
0.00953871
-0.00216314
-0.0328501
-0.0252896
0.0126282
0.0266593
0.0383579
0.0481111
0.0562385
0.0568193
0.0485516
0.0386285
0.0267248
0.0124442
-0.0247359
-0.00913377
0.0306854
0.0447067
0.0563931
0.0661354
0.0742564
0.0739295
0.0657276
0.0558866
0.0440807
0.0299114
-0.00975959
0.00872253
0.0514099
0.0634094
0.0734067
0.0817392
0.088684
0.0975736
0.0919141
0.085125
0.0769764
0.0671999
0.0335516
0.0480673
0.0729808
0.0829092
0.0911824
0.0980776
0.103821
0.109422
0.102616
0.0944529
0.0846675
0.0729348
0.0445293
0.0132857
0.0339936
0.0409663
0.046853
0.0518932
0.0562802
-0.0407225
-0.0434457
-0.0461682
-0.0488909
-0.051615
-0.0604001
-0.148686
-0.144131
-0.143455
-0.14278
-0.142105
-0.14143
-0.242709
-0.242785
-0.242861
-0.242938
-0.243014
-0.245102
-0.244488
-0.242467
-0.242395
-0.242323
-0.242251
-0.242177
-0.343419
-0.343416
-0.343414
-0.343413
-0.343409
-0.344188
-0.343958
-0.343394
-0.343417
-0.343438
-0.34346
-0.34348
-0.344217
-0.344165
-0.3441
-0.344023
-0.343928
-0.344016
-0.343685
-0.34359
-0.343643
-0.343693
-0.343732
-0.343766
-0.341962
-0.342009
-0.342061
-0.34213
-0.342211
-0.343036
-0.342988
-0.341733
-0.341604
-0.341491
-0.341403
-0.341336
-0.341481
-0.341563
-0.341673
-0.341807
-0.341958
-0.343482
-0.343964
-0.342148
-0.341961
-0.341796
-0.341665
-0.341553
-0.340768
-0.340963
-0.341178
-0.341449
-0.341768
-0.344016
-0.246065
-0.241098
-0.239721
-0.238576
-0.237614
-0.236828
-0.134523
-0.136841
-0.139629
-0.142969
-0.146971
-0.156229
-0.0818402
-0.0633179
-0.0553515
-0.0487075
-0.0431854
-0.0385631
0.02397
0.0174913
0.0097144
0.00038289
-0.010802
-0.0405116
-0.0341824
0.00127188
0.013587
0.0238556
0.0324157
0.039549
0.0405598
0.0333884
0.0247833
0.0144593
0.00207487
-0.0330995
-0.0329142
0.00218845
0.01456
0.0248716
0.0334666
0.0406277
0.0567216
0.0484181
0.0384537
0.0265009
0.0121583
-0.0248778
-0.0250454
0.0120468
0.0263899
0.0383417
0.0483024
0.0566018
0.0737357
0.0655226
0.0556665
0.0438371
0.0296452
-0.0101074
0.00827585
0.0511161
0.0631525
0.0731777
0.0815365
0.0884996
0.0974502
0.0917713
0.0849598
0.076784
0.0669699
0.0331443
0.0476826
0.0727785
0.0827488
0.091055
0.0979779
0.103745
0.109378
0.102526
0.0943087
0.0844565
0.0726454
0.0440599
0.0127307
0.0335546
0.0405961
0.0465423
0.0516345
0.0560629
-0.0412053
-0.0439242
-0.0466422
-0.049361
-0.0520812
-0.0610075
-0.14929
-0.144728
-0.144049
-0.143368
-0.142688
-0.142009
-0.243165
-0.243241
-0.243318
-0.243395
-0.243471
-0.245549
-0.34483
-0.344005
-0.344005
-0.344005
-0.344005
-0.344005
-0.343692
-0.343692
-0.343692
-0.343692
-0.343692
-0.344526
-0.444295
-0.443969
-0.443969
-0.443969
-0.443969
-0.443969
-0.443817
-0.443816
-0.443814
-0.443813
-0.443811
-0.444096
-0.444008
-0.443854
-0.443869
-0.443883
-0.443898
-0.443911
-0.44447
-0.444439
-0.444401
-0.444354
-0.444299
-0.44415
-0.444004
-0.444138
-0.444196
-0.444249
-0.444293
-0.444326
-0.443407
-0.443407
-0.443401
-0.443395
-0.44339
-0.443646
-0.443721
-0.443276
-0.443273
-0.443258
-0.443255
-0.443239
-0.443601
-0.443623
-0.44362
-0.443641
-0.443657
-0.444166
-0.44474
-0.444201
-0.444167
-0.444151
-0.444141
-0.444119
-0.444421
-0.444446
-0.444482
-0.444517
-0.444572
-0.445192
-0.445406
-0.444588
-0.444473
-0.444371
-0.444296
-0.444232
-0.338901
-0.339268
-0.339689
-0.340203
-0.340816
-0.343704
-0.24586
-0.239673
-0.237493
-0.235674
-0.234148
-0.232888
-0.124324
-0.127577
-0.131491
-0.136186
-0.141822
-0.154715
-0.0825151
-0.0606374
-0.0513619
-0.0436263
-0.0371947
-0.0318086
0.016165
0.00996178
0.00252002
-0.00640855
-0.0171179
-0.0446089
-0.0407178
-0.0115231
-0.00121525
0.00738088
0.0145426
0.0205159
0.021253
0.0153329
0.00823186
-0.000290949
-0.010513
-0.0395537
-0.039327
-0.0103434
-0.000143736
0.00835835
0.0154422
0.0213487
0.0213252
0.0154216
0.00834593
-0.00014918
-0.0103469
-0.0393591
-0.0329659
0.00218058
0.0145419
0.0248443
0.0334271
0.0405796
0.0405319
0.0333801
0.0248003
0.0144998
0.00213968
-0.0330592
-0.0251747
0.0119764
0.026318
0.0382692
0.0482275
0.0565248
0.0736397
0.0654241
0.0555653
0.0437329
0.0295381
-0.0102868
0.00808328
0.0510118
0.063053
0.073085
0.0814488
0.0884167
0.0973973
0.0917158
0.0848982
0.0767171
0.0668986
0.0329963
0.0475513
0.0727173
0.0826976
0.0910126
0.0979429
0.103716
0.109367
0.102499
0.0942629
0.084387
0.0725488
0.0439164
0.0125746
0.0335046
0.0405862
0.0465663
0.0516844
0.0561301
-0.0413599
-0.0440883
-0.0468159
-0.0495432
-0.0522717
-0.0612247
-0.149548
-0.144994
-0.144312
-0.143631
-0.142948
-0.142265
-0.243432
-0.24351
-0.243587
-0.243663
-0.24374
-0.245797
-0.345043
-0.34424
-0.34424
-0.34424
-0.34424
-0.34424
-0.444397
-0.444397
-0.444397
-0.444397
-0.444397
-0.444699
-0.444512
-0.444192
-0.444192
-0.444192
-0.444192
-0.444192
-0.543754
-0.543754
-0.543754
-0.543754
-0.543754
-0.543889
-0.543705
-0.543564
-0.543564
-0.543564
-0.543564
-0.543564
-0.543454
-0.543454
-0.543455
-0.543453
-0.543452
-0.543572
-0.543541
-0.543496
-0.543504
-0.543511
-0.543517
-0.543524
-0.543909
-0.543893
-0.543874
-0.543849
-0.543821
-0.543687
-0.543691
-0.54383
-0.543869
-0.543894
-0.543913
-0.543944
-0.543621
-0.543605
-0.543615
-0.543602
-0.543594
-0.543637
-0.543948
-0.543859
-0.543853
-0.543869
-0.543849
-0.543858
-0.544601
-0.544592
-0.544612
-0.544601
-0.544606
-0.54464
-0.545645
-0.545727
-0.545727
-0.54573
-0.54572
-0.545724
-0.547072
-0.547076
-0.547081
-0.547082
-0.547088
-0.546864
-0.54814
-0.548483
-0.548458
-0.548453
-0.548433
-0.548423
-0.549326
-0.54935
-0.54939
-0.549423
-0.549472
-0.549101
-0.445352
-0.444159
-0.443886
-0.443662
-0.443477
-0.443319
-0.336091
-0.33675
-0.337521
-0.338455
-0.339579
-0.343334
-0.246681
-0.238987
-0.235673
-0.232906
-0.230592
-0.228671
-0.121773
-0.125812
-0.130678
-0.136515
-0.143518
-0.159734
-0.1096
-0.0815243
-0.0712082
-0.0626028
-0.055431
-0.0494488
-0.0145126
-0.0204344
-0.0275275
-0.036044
-0.0462568
-0.073652
-0.0681806
-0.0358297
-0.0257788
-0.0174014
-0.0104133
-0.00458494
-0.00460566
-0.0104241
-0.017398
-0.0257653
-0.0358103
-0.0676366
-0.0675503
-0.0358265
-0.025781
-0.0174106
-0.010435
-0.00462028
-0.00466605
-0.010479
-0.0174566
-0.0258237
-0.0358674
-0.0676168
-0.0677065
-0.0359231
-0.0258738
-0.0175011
-0.0105236
-0.00470781
0.0212883
0.0153848
0.00830691
-0.000190385
-0.0103902
-0.0394364
-0.0394985
-0.0104297
-0.000228901
0.00827257
0.0153554
0.0212586
0.0405031
0.0333488
0.0247649
0.0144638
0.00210214
-0.0331258
-0.0252471
0.0119382
0.0262782
0.0382287
0.0481874
0.0564868
0.0735957
0.0653802
0.0555216
0.0436914
0.0294978
-0.0103648
0.00801569
0.0509775
0.0630176
0.0730511
0.0814152
0.0883828
0.0973795
0.0916967
0.0848779
0.0766972
0.066883
0.0329593
0.0475227
0.0727048
0.0826847
0.0910006
0.0979312
0.103706
0.10936
0.102491
0.0942513
0.0843717
0.0725309
0.0438879
0.0125433
0.0334977
0.0405832
0.0465655
0.0516865
0.0561335
-0.0413878
-0.0441189
-0.0468473
-0.0495754
-0.0523057
-0.0612652
-0.149628
-0.145082
-0.1444
-0.143718
-0.143037
-0.142353
-0.243558
-0.243635
-0.243711
-0.243788
-0.243865
-0.245907
-0.345169
-0.344381
-0.344381
-0.344381
-0.344381
-0.344381
-0.444563
-0.444563
-0.444563
-0.444563
-0.444563
-0.44485
-0.544306
-0.544201
-0.544201
-0.544201
-0.544201
-0.544201
-0.543972
-0.543972
-0.543972
-0.543972
-0.543972
-0.544091
-0.643197
-0.643158
-0.643158
-0.643158
-0.643158
-0.643158
-0.64286
-0.64286
-0.64286
-0.64286
-0.64286
-0.642918
-0.642714
-0.642645
-0.642645
-0.642645
-0.642645
-0.642645
-0.642528
-0.642528
-0.642528
-0.642528
-0.642528
-0.642591
-0.64257
-0.642544
-0.642547
-0.642549
-0.642551
-0.642554
-0.642797
-0.64279
-0.642783
-0.642775
-0.642763
-0.642688
-0.642785
-0.64288
-0.642888
-0.6429
-0.64292
-0.642919
-0.642979
-0.642987
-0.642976
-0.642978
-0.642976
-0.642947
-0.643461
-0.643515
-0.643521
-0.643517
-0.643517
-0.643517
-0.644593
-0.644598
-0.644589
-0.6446
-0.64459
-0.644413
-0.645862
-0.646249
-0.646253
-0.646242
-0.646251
-0.646246
-0.648481
-0.648483
-0.648488
-0.648491
-0.648487
-0.647833
-0.650219
-0.651171
-0.651176
-0.651171
-0.651163
-0.651167
-0.653671
-0.653671
-0.653679
-0.653684
-0.653686
-0.652525
-0.653233
-0.654551
-0.654526
-0.654518
-0.654496
-0.654493
-0.548969
-0.549041
-0.549121
-0.549213
-0.549326
-0.549093
-0.445072
-0.443236
-0.442667
-0.44219
-0.441794
-0.441471
-0.332428
-0.333581
-0.334932
-0.336569
-0.338535
-0.343594
-0.247315
-0.235395
-0.230355
-0.226152
-0.222633
-0.219726
-0.125709
-0.130366
-0.135952
-0.142654
-0.150691
-0.170158
-0.126785
-0.0995969
-0.0890911
-0.0803316
-0.0730296
-0.0669438
-0.055366
-0.0619334
-0.0698221
-0.0792794
-0.0906275
-0.121111
-0.102548
-0.0664951
-0.0549533
-0.045329
-0.037308
-0.0306185
-0.0307665
-0.0374191
-0.0454017
-0.0549778
-0.0664673
-0.101802
-0.101686
-0.0665684
-0.0550787
-0.0455005
-0.0375173
-0.0308656
-0.0309407
-0.0375932
-0.0455778
-0.0551558
-0.0666492
-0.101738
-0.101827
-0.0667106
-0.0552122
-0.045634
-0.0376467
-0.0309917
-0.0310253
-0.03768
-0.0456696
-0.0552528
-0.066756
-0.101897
-0.0677728
-0.035966
-0.0259119
-0.0175343
-0.0105545
-0.00473562
-0.00475047
-0.0105727
-0.0175546
-0.0259374
-0.0359914
-0.0678151
-0.0395364
-0.0104533
-0.00025018
0.0082493
0.0153369
0.0212394
0.040487
0.0333308
0.0247456
0.0144427
0.00207859
-0.033166
-0.0252833
0.0119186
0.0262602
0.0382114
0.048172
0.0564693
0.0735809
0.0653658
0.0555074
0.0436774
0.0294843
-0.0103922
0.00800106
0.0509709
0.0630089
0.0730421
0.0814059
0.0883713
0.0973753
0.0916924
0.0848762
0.0766971
0.0668821
0.0329603
0.0475266
0.0727037
0.0826844
0.091001
0.0979297
0.103704
0.109361
0.102491
0.0942511
0.0843713
0.07253
0.0439
0.0125665
0.0335321
0.0406237
0.0466095
0.0517319
0.0561807
-0.0413729
-0.044102
-0.0468299
-0.0495603
-0.0522911
-0.0612501
-0.149636
-0.145098
-0.144416
-0.143732
-0.143049
-0.142367
-0.243604
-0.24368
-0.243757
-0.243835
-0.243911
-0.245944
-0.345242
-0.344463
-0.344463
-0.344463
-0.344463
-0.344463
-0.444701
-0.444701
-0.444701
-0.444701
-0.444701
-0.444978
-0.544539
-0.544452
-0.544452
-0.544452
-0.544452
-0.544452
-0.644034
-0.644034
-0.644034
-0.644034
-0.644034
-0.644007
-0.643559
-0.643549
-0.643549
-0.643549
-0.643549
-0.643549
-0.74288
-0.74288
-0.74288
-0.74288
-0.74288
-0.742806
-0.74216
-0.742181
-0.742181
-0.742181
-0.742181
-0.742181
-0.741696
-0.741696
-0.741696
-0.741696
-0.741696
-0.741711
-0.741424
-0.741389
-0.741389
-0.741389
-0.741389
-0.741389
-0.741226
-0.741226
-0.741226
-0.741227
-0.741227
-0.741266
-0.741224
-0.741194
-0.741195
-0.741195
-0.741197
-0.741197
-0.741313
-0.741313
-0.741313
-0.741313
-0.741313
-0.741297
-0.741429
-0.74147
-0.74147
-0.741472
-0.741474
-0.741475
-0.741767
-0.741767
-0.741767
-0.741766
-0.741766
-0.741715
-0.742341
-0.742464
-0.742461
-0.742456
-0.742466
-0.742461
-0.743722
-0.743716
-0.743716
-0.743712
-0.743722
-0.743444
-0.745158
-0.745674
-0.745668
-0.74568
-0.745672
-0.745678
-0.74846
-0.748459
-0.748462
-0.748454
-0.748457
-0.747603
-0.750744
-0.752029
-0.752027
-0.752027
-0.752028
-0.752029
-0.755834
-0.755847
-0.75583
-0.755843
-0.755839
-0.754154
-0.757014
-0.758309
-0.758311
-0.758297
-0.758311
-0.758297
-0.752358
-0.752363
-0.752362
-0.752378
-0.752379
-0.750919
-0.650135
-0.651448
-0.651392
-0.651358
-0.651315
-0.651297
-0.546543
-0.546718
-0.546896
-0.547114
-0.547387
-0.547578
-0.44461
-0.441811
-0.440737
-0.439839
-0.439088
-0.438475
-0.328999
-0.330807
-0.332964
-0.335564
-0.338674
-0.345491
-0.255379
-0.239734
-0.233222
-0.227792
-0.223261
-0.219492
-0.140958
-0.14684
-0.153883
-0.162345
-0.172482
-0.201289
-0.161034
-0.133954
-0.123862
-0.115444
-0.108423
-0.102565
-0.0845315
-0.0909602
-0.0986686
-0.107915
-0.119001
-0.153282
-0.152032
-0.118426
-0.107529
-0.0984437
-0.0908723
-0.08456
-0.0557066
-0.0621225
-0.0698295
-0.0790722
-0.0901616
-0.119907
-0.119723
-0.0901985
-0.0791371
-0.0699179
-0.0622353
-0.0558341
-0.0559284
-0.062328
-0.0700063
-0.0792229
-0.0902794
-0.119784
-0.119872
-0.0903494
-0.0792898
-0.0700709
-0.0623879
-0.0559885
-0.0560243
-0.0624258
-0.0701115
-0.0793353
-0.0903999
-0.119941
-0.119984
-0.0904289
-0.0793632
-0.0701352
-0.0624493
-0.0560427
-0.031044
-0.0376986
-0.0456905
-0.0552763
-0.0667842
-0.101942
-0.101969
-0.0667975
-0.0552893
-0.0457035
-0.0377117
-0.0310517
-0.00476293
-0.0105809
-0.0175658
-0.0259487
-0.0360049
-0.0678412
-0.0395582
-0.0104658
-0.000260821
0.00824087
0.0153262
0.0212318
0.040479
0.033324
0.0247356
0.0144321
0.00206684
-0.0331886
-0.0253017
0.0119106
0.0262532
0.0382035
0.0481647
0.0564639
0.0735786
0.0653634
0.0555033
0.0436773
0.0294832
-0.0104005
0.0080023
0.0509739
0.0630117
0.0730422
0.0814041
0.0883713
0.0973756
0.0916947
0.0848805
0.0767024
0.0668877
0.0329698
0.0475341
0.0727074
0.0826882
0.0910034
0.0979328
0.103706
0.109361
0.10249
0.0942522
0.0843737
0.0725326
0.0439072
0.0125799
0.0335412
0.0406316
0.0466184
0.0517379
0.0561846
-0.0413496
-0.0440784
-0.0468072
-0.0495375
-0.0522695
-0.0612255
-0.149622
-0.145086
-0.144405
-0.143721
-0.143036
-0.142355
-0.243618
-0.243694
-0.243772
-0.243851
-0.243927
-0.245954
-0.34529
-0.344516
-0.344516
-0.344516
-0.344516
-0.344516
-0.444823
-0.444823
-0.444822
-0.444822
-0.444822
-0.445091
-0.544782
-0.544718
-0.544718
-0.544718
-0.544718
-0.544718
-0.644589
-0.644589
-0.644589
-0.644589
-0.644589
-0.644512
-0.744673
-0.744939
-0.744939
-0.744939
-0.744939
-0.744939
-0.743818
-0.743818
-0.743818
-0.743818
-0.743818
-0.743661
-0.843834
-0.844189
-0.844189
-0.844189
-0.844189
-0.844189
-0.842447
-0.842447
-0.842447
-0.842447
-0.842447
-0.84226
-0.841132
-0.841213
-0.841213
-0.841213
-0.841213
-0.841213
-0.840417
-0.840417
-0.840417
-0.840417
-0.840417
-0.840396
-0.839958
-0.839947
-0.839947
-0.839947
-0.839947
-0.839947
-0.839699
-0.839699
-0.839699
-0.8397
-0.8397
-0.839725
-0.839639
-0.839606
-0.839606
-0.839606
-0.839604
-0.839603
-0.839627
-0.839631
-0.839636
-0.83964
-0.839645
-0.839663
-0.839792
-0.839795
-0.839793
-0.839786
-0.839782
-0.83978
-0.840156
-0.840161
-0.840152
-0.840156
-0.840158
-0.840109
-0.840736
-0.840869
-0.840863
-0.840866
-0.840871
-0.840866
-0.842102
-0.842102
-0.84211
-0.842098
-0.842105
-0.841819
-0.843524
-0.844048
-0.844049
-0.84405
-0.844051
-0.844045
-0.846891
-0.846905
-0.846891
-0.846898
-0.846899
-0.846014
-0.849279
-0.850684
-0.850675
-0.850678
-0.850686
-0.850679
-0.854993
-0.854983
-0.854988
-0.854979
-0.854989
-0.852841
-0.856025
-0.858662
-0.858659
-0.858658
-0.858657
-0.85866
-0.859247
-0.859251
-0.859247
-0.859251
-0.859247
-0.858019
-0.901202
-0.901612
-0.901601
-0.901591
-0.901581
-0.901574
-0.925078
-0.93376
-0.940998
-0.947032
-0.952061
-0.952058
-0.947031
-0.941001
-0.933769
-0.925091
-0.925102
-0.933779
-0.941013
-0.947036
-0.952052
-0.952054
-0.947031
-0.941012
-0.933785
-0.92512
-0.925136
-0.933797
-0.941021
-0.947027
-0.952045
-0.952196
-0.947032
-0.940842
-0.933409
-0.924489
-0.925698
-0.9344
-0.941656
-0.947695
-0.952732
-0.909923
-0.903488
-0.895768
-0.886502
-0.87538
-0.848793
-0.805068
-0.838032
-0.851599
-0.862906
-0.872327
-0.880175
-0.880024
-0.872009
-0.862386
-0.85084
-0.836982
-0.837528
-0.851199
-0.86259
-0.872083
-0.879991
-0.880005
-0.872094
-0.862597
-0.8512
-0.837524
-0.837523
-0.851206
-0.862603
-0.872101
-0.880016
-0.880033
-0.872113
-0.86261
-0.851205
-0.837523
-0.83752
-0.851205
-0.862612
-0.872118
-0.880037
-0.865304
-0.856814
-0.846626
-0.834398
-0.819725
-0.819726
-0.834395
-0.84662
-0.856809
-0.865296
-0.865288
-0.8568
-0.846615
-0.834392
-0.819727
-0.819724
-0.834389
-0.846608
-0.856789
-0.865275
-0.865259
-0.856779
-0.8466
-0.834384
-0.819725
-0.818242
-0.833334
-0.845911
-0.856388
-0.865116
-0.865067
-0.856234
-0.845633
-0.832908
-0.817638
-0.782408
-0.782344
-0.782416
-0.782401
-0.782382
-0.782364
-0.78236
-0.718838
-0.718895
-0.718941
-0.71901
-0.719087
-0.717993
-0.636458
-0.636858
-0.636482
-0.636183
-0.635914
-0.635706
-0.536321
-0.537033
-0.537863
-0.538887
-0.540095
-0.542434
-0.446166
-0.439739
-0.43658
-0.433954
-0.431749
-0.429924
-0.321618
-0.325324
-0.329757
-0.335085
-0.341469
-0.356625
-0.30216
-0.273989
-0.264386
-0.256385
-0.24971
-0.244148
-0.204076
-0.209657
-0.216366
-0.224408
-0.234045
-0.260247
-0.222137
-0.19512
-0.185134
-0.176805
-0.169864
-0.164077
-0.150273
-0.156535
-0.164042
-0.173048
-0.183853
-0.214792
-0.191921
-0.153461
-0.14174
-0.131967
-0.123821
-0.11703
-0.116784
-0.123472
-0.131488
-0.141109
-0.152653
-0.190289
-0.189915
-0.1526
-0.141091
-0.131497
-0.123509
-0.116843
-0.084679
-0.0909774
-0.0985384
-0.107612
-0.118493
-0.151848
-0.151893
-0.118574
-0.107696
-0.0986301
-0.0910741
-0.0847825
-0.0848474
-0.0911422
-0.0987006
-0.107769
-0.118655
-0.151987
-0.152061
-0.118708
-0.107818
-0.0987461
-0.0911854
-0.0848885
-0.0849083
-0.0912078
-0.0987743
-0.107845
-0.11874
-0.152108
-0.152138
-0.118759
-0.107864
-0.0987901
-0.0912216
-0.0849185
-0.0560535
-0.0624628
-0.070151
-0.079379
-0.0904465
-0.12001
-0.120025
-0.0904563
-0.0793854
-0.0701587
-0.0624682
-0.056059
-0.0310576
-0.0377175
-0.0457094
-0.0552997
-0.0668059
-0.101984
-0.0678518
-0.0360124
-0.0259538
-0.0175735
-0.010586
-0.00476812
0.0212264
0.0153207
0.00823541
-0.000268349
-0.0104718
-0.0395687
-0.0331998
0.0020613
0.0144265
0.0247301
0.0333204
0.0404761
0.0564657
0.0481624
0.0382015
0.0262529
0.0119103
-0.0253081
-0.0103998
0.0294886
0.0436826
0.055508
0.0653639
0.0735792
0.0883711
0.0814064
0.0730471
0.0630167
0.0509796
0.00800845
0.0329787
0.0668944
0.0767055
0.0848829
0.0916979
0.0973759
0.103708
0.0979332
0.0910029
0.0826899
0.0727127
0.0475421
0.0439171
0.072538
0.0843769
0.0942528
0.10249
0.10936
0.0561967
0.0517505
0.0466303
0.0406441
0.0335545
0.0125954
-0.0612057
-0.0522518
-0.0495208
-0.0467919
-0.0440607
-0.0413309
-0.142342
-0.143024
-0.143707
-0.14439
-0.145073
-0.149608
-0.245958
-0.24393
-0.243853
-0.243776
-0.243699
-0.243621
-0.344555
-0.344554
-0.344554
-0.344554
-0.344554
-0.345325
-0.445192
-0.444931
-0.444931
-0.444932
-0.444931
-0.444931
-0.544975
-0.544974
-0.544974
-0.544974
-0.544974
-0.545017
-0.645018
-0.645148
-0.645148
-0.645148
-0.645148
-0.645148
-0.746108
-0.746108
-0.746108
-0.746108
-0.746108
-0.745719
-0.847844
-0.848717
-0.848717
-0.848717
-0.848717
-0.848717
-0.846372
-0.846372
-0.846372
-0.846371
-0.846371
-0.845778
-0.948316
-0.949494
-0.949494
-0.949494
-0.949494
-0.949494
-0.945463
-0.945463
-0.945463
-0.945463
-0.945463
-0.944781
-0.942056
-0.94241
-0.94241
-0.94241
-0.94241
-0.94241
-0.940366
-0.940366
-0.940366
-0.940366
-0.940366
-0.940204
-0.939057
-0.939115
-0.939115
-0.939115
-0.939115
-0.939115
-0.938409
-0.938409
-0.938409
-0.938409
-0.938409
-0.938401
-0.938062
-0.938046
-0.938046
-0.938046
-0.938045
-0.938045
-0.937878
-0.937881
-0.937883
-0.937882
-0.937884
-0.937914
-0.937886
-0.937854
-0.937847
-0.937842
-0.937836
-0.937831
-0.937941
-0.937945
-0.937949
-0.937956
-0.937968
-0.937979
-0.938257
-0.938293
-0.938287
-0.938287
-0.938287
-0.938287
-0.938883
-0.938883
-0.938883
-0.938886
-0.938883
-0.938778
-0.939673
-0.9399
-0.93991
-0.939899
-0.939908
-0.939903
-0.941528
-0.941522
-0.941522
-0.941526
-0.941525
-0.941098
-0.943212
-0.943942
-0.943943
-0.943945
-0.943932
-0.943948
-0.947226
-0.947222
-0.947231
-0.947233
-0.947222
-0.946004
-0.949075
-0.951227
-0.951233
-0.951236
-0.951226
-0.951229
-0.955656
-0.955642
-0.955655
-0.955651
-0.955649
-0.9516
-0.967683
-0.985594
-0.991732
-0.996845
-1.0011
-1.00466
-1.0041
-1.00409
-1.0041
-1.0041
-1.0041
-1.00059
-1.0006
-1.0006
-1.0006
-1.00061
-0.996415
-0.99641
-0.996401
-0.996395
-0.996386
-0.991336
-0.991349
-0.991359
-0.99138
-0.991397
-0.985361
-0.985332
-0.985309
-0.985295
-0.985274
-0.969891
-0.969893
-0.969913
-0.969925
-0.96994
-1.05307
-1.05305
-1.05304
-1.05303
-1.05301
-1.05701
-1.05703
-1.05705
-1.05707
-1.0571
-1.05955
-1.05953
-1.05951
-1.05949
-1.05948
-1.06154
-1.06155
-1.06156
-1.06157
-1.06158
-1.06328
-1.06328
-1.06327
-1.06326
-1.06326
-1.06469
-1.06469
-1.06469
-1.0647
-1.06469
-1.06515
-1.06369
-1.06193
-1.05983
-1.0573
-1.05274
-1.05248
-1.05788
-1.06045
-1.06259
-1.06437
-1.06586
-1.00574
-1.00227
-0.998092
-0.993083
-0.987066
-0.965378
-0.902006
-0.904914
-0.929484
-0.937241
-0.943707
-0.949093
-0.953574
-0.910392
-0.904624
-0.897702
-0.889399
-0.879434
-0.851444
-0.807346
-0.841168
-0.853832
-0.864387
-0.873177
-0.880506
-0.865279
-0.856763
-0.846542
-0.834277
-0.819556
-0.784417
-0.783331
-0.818594
-0.833632
-0.846162
-0.856603
-0.865299
-0.865131
-0.856118
-0.845298
-0.83231
-0.816724
-0.781278
-0.78084
-0.817165
-0.832634
-0.845524
-0.85626
-0.865208
-0.86535
-0.865361
-0.865371
-0.865376
-0.865383
-0.856633
-0.856629
-0.856625
-0.85662
-0.856611
-0.846126
-0.846128
-0.846129
-0.846129
-0.846131
-0.833525
-0.833528
-0.833533
-0.833536
-0.833539
-0.818438
-0.818427
-0.818419
-0.818407
-0.8184
-0.780366
-0.780395
-0.780431
-0.780485
-0.780536
-0.71646
-0.71619
-0.715961
-0.715774
-0.715611
-0.630731
-0.63126
-0.631902
-0.632652
-0.633572
-0.634427
-0.541655
-0.537044
-0.534656
-0.53266
-0.531012
-0.529615
-0.420804
-0.423733
-0.427268
-0.431511
-0.436587
-0.447957
-0.370544
-0.352048
-0.344548
-0.338303
-0.33309
-0.32874
-0.270592
-0.275934
-0.282344
-0.290031
-0.299256
-0.325125
-0.317664
-0.288002
-0.2784
-0.270394
-0.263723
-0.258162
-0.220277
-0.226553
-0.234084
-0.243119
-0.253954
-0.292172
-0.251775
-0.21829
-0.207728
-0.198918
-0.19157
-0.185448
-0.184872
-0.190848
-0.198013
-0.206611
-0.216921
-0.249833
-0.212899
-0.18276
-0.172263
-0.163519
-0.156224
-0.150148
-0.150118
-0.156163
-0.163412
-0.172105
-0.182542
-0.212402
-0.212341
-0.182543
-0.172122
-0.163439
-0.156204
-0.150167
-0.116928
-0.123583
-0.131568
-0.141151
-0.152651
-0.18989
-0.189964
-0.152718
-0.141217
-0.131632
-0.123647
-0.116989
-0.117028
-0.12369
-0.131677
-0.141267
-0.152768
-0.190034
-0.190084
-0.152802
-0.141298
-0.131706
-0.123714
-0.117055
-0.117066
-0.123726
-0.131722
-0.141313
-0.152822
-0.190115
-0.190131
-0.152833
-0.141321
-0.131728
-0.123732
-0.117072
-0.0849237
-0.091227
-0.0987951
-0.107874
-0.118767
-0.152154
-0.152163
-0.118772
-0.107877
-0.0987949
-0.0912293
-0.0849242
-0.0560592
-0.0624685
-0.0701612
-0.0793885
-0.0904615
-0.120033
-0.101992
-0.0668107
-0.0553044
-0.0457117
-0.0377172
-0.0310605
-0.00476728
-0.0105923
-0.0175761
-0.0259591
-0.0360178
-0.0678593
-0.0395747
-0.0104751
-0.000270964
0.00823064
0.0153208
0.0212232
0.0404762
0.0333186
0.0247295
0.0144266
0.00205979
-0.0332042
-0.0253086
0.0119112
0.0262546
0.038204
0.0481631
0.0564679
0.0735798
0.0653665
0.0555132
0.043686
0.0294932
-0.0103976
0.00801223
0.0509849
0.0630201
0.0730517
0.0814089
0.0883732
0.0973767
0.0916997
0.0848838
0.0767073
0.0668977
0.0329855
0.0475496
0.0727149
0.082691
0.0910052
0.097934
0.103707
0.10936
0.102491
0.0942548
0.0843789
0.0725401
0.0439227
0.0126022
0.033556
0.0406456
0.0466314
0.0517511
0.0561981
-0.0413219
-0.0440504
-0.0467806
-0.0495108
-0.0522405
-0.0611922
-0.1496
-0.145065
-0.144381
-0.143697
-0.143015
-0.142332
-0.243624
-0.243702
-0.243778
-0.243855
-0.243933
-0.24596
-0.345352
-0.344585
-0.344585
-0.344585
-0.344585
-0.344585
-0.445022
-0.445022
-0.445022
-0.445022
-0.445022
-0.445273
-0.54521
-0.545186
-0.545186
-0.545186
-0.545186
-0.545186
-0.645621
-0.645621
-0.645621
-0.645621
-0.645621
-0.645445
-0.746615
-0.747115
-0.747115
-0.747115
-0.747115
-0.747115
-0.850784
-0.850784
-0.850784
-0.850784
-0.850784
-0.849644
-0.956293
-0.957468
-0.957492
-0.957515
-0.957539
-0.957564
-0.953889
-0.953889
-0.953889
-0.953889
-0.953889
-0.952389
-1.06158
-1.06193
-1.062
-1.06206
-1.06213
-1.0622
-1.05446
-1.05446
-1.05446
-1.05446
-1.05446
-1.05327
-1.04647
-1.04764
-1.04764
-1.04764
-1.04764
-1.04764
-1.04272
-1.04272
-1.04272
-1.04272
-1.04272
-1.04214
-1.03935
-1.03961
-1.03961
-1.03961
-1.03961
-1.03961
-1.0378
-1.0378
-1.0378
-1.0378
-1.0378
-1.0377
-1.03679
-1.03682
-1.03682
-1.03682
-1.03682
-1.03682
-1.03632
-1.03632
-1.03632
-1.03632
-1.03632
-1.03633
-1.03611
-1.03609
-1.03609
-1.03609
-1.03609
-1.03609
-1.03599
-1.03599
-1.03599
-1.036
-1.036
-1.03603
-1.03607
-1.03605
-1.03604
-1.03603
-1.03603
-1.03603
-1.03626
-1.03626
-1.03626
-1.03627
-1.03626
-1.03625
-1.03659
-1.03664
-1.03665
-1.03665
-1.03665
-1.03665
-1.03731
-1.03731
-1.03732
-1.03731
-1.03731
-1.03717
-1.03813
-1.03838
-1.03838
-1.03838
-1.03838
-1.03838
-1.03999
-1.04
-1.03999
-1.03999
-1.03999
-1.03957
-1.04152
-1.0422
-1.0422
-1.0422
-1.0422
-1.0422
-1.04498
-1.04498
-1.04497
-1.04498
-1.04497
-1.04384
-1.04722
-1.04851
-1.04851
-1.04851
-1.04852
-1.0485
-1.13705
-1.13704
-1.13704
-1.13704
-1.13704
-1.13808
-1.13574
-1.13329
-1.13219
-1.13127
-1.1305
-1.12987
-1.12957
-1.12956
-1.12957
-1.12956
-1.12957
-1.13017
-1.13016
-1.13018
-1.13017
-1.13019
-1.13093
-1.13091
-1.13091
-1.13089
-1.13089
-1.13176
-1.13177
-1.13178
-1.1318
-1.13181
-1.13288
-1.13286
-1.13283
-1.13282
-1.1328
-1.13492
-1.13492
-1.13494
-1.13495
-1.13497
-1.22011
-1.22009
-1.22008
-1.22007
-1.22006
-1.20666
-1.20667
-1.2067
-1.20671
-1.20674
-1.20232
-1.2023
-1.20229
-1.20227
-1.20226
-1.19859
-1.1986
-1.19861
-1.19862
-1.19863
-1.19556
-1.19555
-1.19555
-1.19555
-1.19554
-1.19299
-1.193
-1.19299
-1.193
-1.193
-1.19328
-1.19587
-1.19898
-1.20271
-1.20718
-1.2225
-1.22522
-1.20706
-1.20272
-1.19911
-1.1961
-1.19359
-1.13043
-1.13108
-1.13187
-1.1328
-1.13392
-1.13684
-1.1374
-1.13417
-1.13309
-1.13219
-1.13143
-1.1308
-1.06635
-1.06492
-1.06321
-1.06115
-1.05869
-1.05287
-0.965325
-0.989178
-0.994787
-0.999456
-1.00335
-1.00659
-1.00704
-1.0039
-1.00013
-0.995598
-0.990165
-0.967141
-0.907491
-0.931556
-0.938836
-0.944903
-0.949957
-0.954164
-0.910588
-0.905139
-0.8986
-0.890752
-0.881338
-0.852496
-0.807835
-0.842674
-0.854927
-0.865135
-0.873643
-0.880732
-0.865389
-0.857042
-0.847024
-0.835001
-0.820574
-0.785365
-0.784275
-0.819624
-0.834359
-0.846635
-0.856866
-0.865388
-0.880726
-0.873291
-0.864376
-0.853671
-0.840825
-0.805541
-0.805021
-0.839323
-0.852601
-0.863661
-0.872877
-0.880556
-0.880314
-0.872118
-0.86228
-0.850473
-0.8363
-0.802515
-0.798765
-0.796102
-0.795943
-0.795806
-0.795702
-0.795606
-0.834187
-0.848993
-0.861332
-0.871615
-0.880181
-0.880178
-0.871619
-0.861342
-0.849008
-0.83421
-0.834235
-0.849023
-0.861351
-0.871619
-0.880172
-0.880166
-0.871619
-0.861359
-0.849044
-0.834267
-0.834301
-0.849067
-0.861369
-0.871621
-0.880157
-0.880202
-0.871701
-0.861495
-0.849247
-0.834547
-0.871367
-0.883652
-0.893895
-0.902422
-0.909531
-0.909205
-0.902071
-0.893516
-0.883238
-0.870912
-0.870857
-0.883204
-0.893496
-0.902067
-0.909208
-0.909207
-0.902058
-0.893472
-0.883178
-0.870817
-0.870778
-0.883153
-0.893458
-0.902051
-0.909208
-0.909209
-0.902044
-0.893449
-0.883133
-0.870752
-0.837144
-0.837269
-0.837412
-0.837582
-0.83779
-0.840828
-0.812872