/*--------------------------------*- C++ -*----------------------------------*\
| =========                 |                                                 |
| \\      /  F ield         | OpenFOAM: The Open Source CFD Toolbox           |
|  \\    /   O peration     | Version:  2212                                  |
|   \\  /    A nd           | Website:  www.openfoam.com                      |
|    \\/     M anipulation  |                                                 |
\*---------------------------------------------------------------------------*/
FoamFile
{
    version     2.0;
    format      ascii;
    arch        "LSB;label=32;scalar=64";
    class       volScalarField;
    location    "30";
    object      T;
}
// * * * * * * * * * * * * * * * * * * * * * * * * * * * * * * * * * * * * * //

dimensions      [0 0 0 1 0 0 0];

internalField   nonuniform List<scalar> 
248319
(
300
300
300
300
300
300
300
300
300
300
300
300
300
300
300
300
300
300
300
300
300
300
300
300
300
300
300
300
300
300
300
300
300
300
300
300
300
300
300
300
300
300
300
300
300
300
300
300
300
300
300
300
300
300
300
300
300
300
300
300
300
300
300
300
300
300
300
300
300
300
300
300
300
300
300
300
300
300
300
300
300
300
300
300
300
300
300
300
300
300
300
300
300
300
300
300
300
300
300
300
300
300
300
300
300
300
300
300
300
300
300
300
300
300
300
300
300
300
300
300
300
300
300
300
300
300
300
300
300
300
300
300
300
300
300
300
300
300
300
300
300
300
300
300
300
300
300
300
300
300
300
300
300
300
300
300
300
300
300
300
300
300
300
300
300
300
300
300
300
300
300
300
300
300
300
300
300
300
300
300
300
300
300
300
300
300
300
300
300
300
300
300
300
300
300
300
300
300
300
300
300
300
300
300
300
300
300
300
300
300
300
300
300
300
300
300
300
300
300
300
300
300
300
300
300
300
300
300
300
300
300
300
300
300
300
300
300
300
300
300
300
300
300
300
300
300
300
300
300
300
300
300
300
300
300
300
300
300
300
300
300
300
300
300
300
300
300
300
300
300
300
300
300
300
300
300
300
300
300
300
300
300
300
300
300
300
300
300
300
300
300
300
300
300
300
300
300
300
300
300
300
300
300
300
300
300
300
300
300
300
300
300
300
300
300
300
300
300
300
300
300
300
300
300
300
300
300
300
300
300
300
300
300
300
300
300
300
300
300
300
300
300
300
300
300
300
300
300
300
300
300
300
300
300
300
300
300
300
300
300
300
300
300
300
300
300
300
300
300
300
300
300
300
300
300
300
300
300
300
300
300
300
300
300
300
300
300
300
300
300
300
300
300
300
300
300
300
300
300
300
300
300
300
300
300
300
300
300
300
300
300
300
300
300
300
300
300
300
300
300
300
300
300
300
300
300
300
300
300
300
300
300
300
300
300
300
300
300
300
300
300
300
300
300
300
300
300
300
300
300
300
300
300
300
300
300
300
300
300
300
300
300
300
300
300
300
300
300
300
300
300
300
300
300
300
300
300
300
300
300
300
300
300
300
300
300
300
300
300
300
300
300
300
300
300
300
300
300
300
300
300
300
300
300
300
300
300
300
300
300
300
300
300
300
300
300
300
300
300
300
300
300
300
300
300
300
300
300
300
300
300
300
300
300
300
300
300
300
300
300
300
300
300
300
300
300
300
300
300
300
300
300
300
300
300
300
300
300
300
300
300
300
300
300
300
300
300
300
300
300
300
300
300
300
300
300
300
300
300.001
300.001
300.001
300.001
300.002
300
300
300
300
300
300
300
300
300
300
300
300
300
300
300
300
300
300
300
300
300
300
300
300
300
300
300
300
300
300
300
300
300
300
300
300
300
300
300
300
300
300
300
300
300
300
300
300
300
300
300
300
300
300
300
300
300
300
300
300
300
300
300
300
300
300
300
300
300
300
300
300
300
300
300
300
300
300
300
300
300
300
300
300
300
300
300
300
300
300
300
300
300
300
300
300
300
300
300
300
300
300
300
300
300
300
300
300
300
300
300
300
300
300
300
300
300
300
300
300
300
300
300
300
300
300
300
300
300
300
300
300
300
300
300
300
300
300
300
300
300
300
300
300
300
300
300
300
300
300
300
300
300
300
300
300
300
300
300
300
300
300
300
300
300
300
300
300
300
300
300
300
300
300
300
300
300
300
300
300
300
300
300
300
300
300
300
300
300
300
300
300
300
300
300
300
300
300
300
300
300
300
300
300
300.007
300.007
300.005
300.002
300
300
300.001
300.012
300.028
300.047
300.06
300.065
300.336
300.314
300.249
300.155
300.074
300.006
300.002
300.008
300.014
300.019
300.023
300.024
300.001
300.001
300.001
300.001
300
300
300
300
300
300
300
300
300
300
300
300
300
300
300
300
300
300
300
300
300
300
300
300
300
300
300
300
300
300
300
300
300
300
300
300
300
300
300
300
300
300
300
300
300
300
300
300
300
300
300
300
300
300
300
300
300
300
300
300
300
300
300
300
300
300
300
300
300
300
300
300
300
300
300
300
300
300
300
300
300
300
300
300
300
300
300
300
300
300
300
300
300
300
300
300
300
300
300
300
300
300
300
300
300
300
300
300
300
300
300
300
300
300
300
300
300
300
300
300
300
300
300
300
300
300
300
300
300
300
300
300
300
300
300
300
300
300
300
300
300
300
300
300
300
300
300
300
300
300
300
300
300
300
300
300
300
300
300
300
300
300
300
300
300
300
300
300
300
300
300
300
300
300
300
300
300
300
300
300
300
300
300
300
300
300
300
300
300
300
300
300
300
300
300
300
300
300
300
300
300
300
300
300
300
300
300
300
300
300
300
300
300
300
300
300
300
300
300
300
300.002
300.006
300.009
300.009
300.096
300.091
300.073
300.041
300.014
300
300.007
300.119
300.287
300.463
300.563
300.59
302.248
302.14
301.746
301.082
300.454
300.026
300.05
300.975
302.507
304.244
305.371
305.714
300.954
300.881
300.671
300.399
300.183
300.015
300.005
300.025
300.045
300.071
300.093
300.102
300.003
300.003
300.003
300.002
300.001
300
300
300
300
300
300
300
300
300
300
300
300
300
300
300
300
300
300
300
300
300
300
300
300
300
300
300
300
300
300
300
300
300
300
300
300
300
300
300
300
300
300
300
300
300
300
300
300
300.001
300.001
300
300
300
300
300
300
300
300
300
300
300.001
300
300
300
300
300
300
300
300
300
300
300
300.001
300
300
300
300
300
300
300
300
300
300
300
300
300
300
300
300
300
300
300
300
300
300
300
300
300
300
300
300
300
300
300
300
300
300
300
300
300
300
300
300
300
300
300
300
300
300
300
300
300
300
300
300
300
300
300
300
300
300
300
300
300
300
300
300
300
300
300
300
300
300
300
300
300
300
300
300
300
300
300
300
300
300
300
300
300
300
300
300
300
300
300
300
300
300
300
300
300
300
300
300
300
300
300
300
300
300
300
300
300
300
300
300
300
300
300
300
300
300
300
300
300
300
300
300
300
300
300
300
300
300
300
300
300
300
300
300
300
300
300
300
300
300
300
300
300
300
300
300
300
300
300
300
300
300
300
300
300
300
300
300
300
300
300
300
300
300
300
300
300
300.003
300.015
300.029
300.037
300.038
300.33
300.319
300.267
300.163
300.061
300.002
300.021
300.33
300.817
301.33
301.604
301.666
305.205
304.956
303.951
302.308
300.894
300.06
300.096
301.413
304.077
307.688
310.308
311.088
316.575
315.193
310.68
305.136
301.592
300.111
300.07
301.514
304.243
307.58
309.891
310.62
301.82
301.649
301.193
300.673
300.301
300.025
300.007
300.04
300.075
300.124
300.175
300.196
300.004
300.005
300.004
300.003
300.002
300.001
300
300
300
300
300
300
300
300
300
300
300
300
300
300
300
300
300
300
300
300
300
300
300
300
300.001
300
300
300
300
300
300
300
300
300
300
300
300.001
300
300
300
300
300
300
300
300
300
300
300.001
300.002
300
300
300
300
300
300
300
300
300
300.001
300.003
300.004
300.001
300
300
300
300
300
300
300
300
300
300.002
300.002
300.001
300
300
300
300
300
300
300
300
300
300.001
300
300
300
300
300
300
300
300
300
300
300
300
300
300
300
300
300
300
300
300
300
300
300
300
300
300
300
300
300
300
300
300
300
300
300
300
300
300
300
300
300
300
300
300
300
300
300
300
300
300
300
300
300
300
300
300
300
300
300
300
300
300
300
300
300
300
300
300
300
300
300
300
300
300
300
300
300
300
300
300
300
300
300
300
300
300
300
300
300
300
300
300
300
300
300
300
300
300
300
300
300
300
300
300
300
300
300
300
300
300
300
300
300
300
300
300
300
300
300
300
300
300
300
300
300
300
300
300
300
300
300
300
300
300
300
300
300
300
300
300
300
300
300
300
300
300
300
300
300
300
300
300
300
300
300
300
300
300
300
300
300
300
300
300
300
300
300
300
300
300
300
300
300
300
300.001
300.001
300.001
300
300
300
300
300.012
300.042
300.074
300.088
300.091
300.722
300.7
300.587
300.359
300.138
300.006
300.039
300.545
301.385
302.346
302.909
303.036
307.607
307.122
305.324
302.899
301.087
300.088
300.124
301.356
303.831
307.865
311.87
313.231
318.194
315.192
308.297
303.516
301.285
300.161
300.132
300.616
302.189
307.426
316.33
320.869
330.61
340.077
366.789
412.479
468.509
466.813
406.293
354.843
330.268
322.505
310.499
316.931
339.652
394.987
463.596
458.767
382.333
328.196
308.087
303.473
300.89
303.844
320.031
371.557
454.843
450.642
362.258
314.82
302.147
300.284
300.11
301.213
309.828
348.925
440.905
438.887
346.764
309.122
301.1
300.1
300.017
300.011
300.056
300.692
306.749
340.077
433.283
445.455
351.695
309.856
301.128
300.165
300.567
302.563
315.608
364.632
454.456
459.839
377.303
325.345
307.743
303.247
310.76
317.717
338.739
390.839
464.693
468.531
404.169
354.423
332.308
323.843
333.5
343.312
365.477
413.474
469.779
469.405
411.974
364.827
343.087
333.368
323.482
331.741
353.293
402.249
468.087
463.508
387.92
336.802
316.832
310.389
302.845
306.637
322.639
373.084
458.134
451.711
359.067
312.688
301.828
300.496
300.148
300.786
307.547
345.211
441.058
427.091
333.355
304.72
300.407
300.034
300.011
300.121
300.654
301.985
307.264
317.046
322.686
318.887
316.493
309.785
304.148
301.291
300.119
300.094
301.562
304.865
309.19
312.699
313.817
302.145
301.938
301.394
300.837
300.428
300.051
300.004
300.021
300.036
300.055
300.07
300.068
299.999
300
300
300.001
300
300
300
300
300
300
300
300
300
300
300
300
300
300
300
300
300
300
300
300
300
300
300
300
300
300.001
300.001
300
300
300
300
300
300
300
300
300
300
300.001
300.002
300
300
300
300
300
300
300
300
300
300
300.001
300.002
300.001
300
300
300
300
300
300
300
300
300.001
300.003
300.004
300.001
300
300
300
300
300
300
300
300.001
300.001
300.005
300.007
300.002
300.001
300
300
300
300
300
300
300.001
300.002
300.005
300.007
300.002
300.001
300
300
300
300
300
300
300
300.001
300.003
300.001
300
300
300
300
300
300
300
300
300
300
300
300
300
300
300
300
300
300
300
300
300
300
300
300
300
300
300
300
300
300
300
300
300
300
300
300
300
300
300
300
300
300
300
300
300
300
300
300
300
300
300
300
300
300
300
300
300
300
300
300
300
300
300
300
300
300
300
300
300
300
300
300
300
300
300
300
300
300
300
300
300
300
300
300
300
300
300
300
300
300
300
300
300
300
300
300
300
300
300
300
300
300
300
300
300
300
300
300
300
300
300
300
300
300
300
300
300
300
300
300
300
300
300
300
300
300
300
300
300
300
300
300
300
300
300
300
300
300
300
300
300
300
300
300
300
300
300
300
300
300
300
300
300
300
300
300
300
300
300
300
300
300
300
300
300
300
300
300
300
300
300
300
300
300
300
300
300
300
300
300
300
300
300
300
300
300
300
300
300
300
300
300
300
300
300.001
300.001
300.001
300.106
300.106
300.097
300.061
300.02
300
300.011
300.209
300.521
300.82
300.94
300.952
303.828
303.699
303.016
301.779
300.702
300.055
300.106
301.16
303.165
306.044
308.198
308.749
314.369
312.96
308.304
303.722
301.266
300.133
300.138
300.678
304.109
320.282
370.27
455.432
460.007
463.572
466.739
467.989
468.297
412.526
409.879
400.629
389.633
380.513
327.424
335.365
346.042
359.018
368.542
341.834
333.842
321.886
312.872
307.528
302.194
305.809
313.548
324.921
331.643
321.312
317.431
308.61
302.733
300.71
301.41
304.154
310.864
319.592
322.855
334.103
329.302
318.96
310.555
305.765
314.859
321.11
330.138
340.149
346.783
372.657
366.971
356.817
347.142
339.376
392.322
400.396
409.242
414.763
415.204
469.728
470.346
470.104
467.357
464.464
459.977
382.213
331.494
310.211
303.131
300.514
300.078
300.935
304.735
320.195
366.556
452.442
443.962
352.368
310.972
301.393
300.127
300.018
300.017
300.025
300.142
301.344
309.907
347.377
437.923
441.06
350.512
310.979
301.547
300.171
300.031
300.02
300.098
301.003
308.292
343.777
435.825
427.956
335.129
305.482
300.556
300.057
300.02
300.019
300.078
300.772
306.73
338.588
430.645
427.14
334.606
305.265
300.494
300.041
300.011
300.133
300.164
300.788
307.336
343.405
437.83
448.35
456.052
461.527
464.963
466.526
406.639
396.618
381.993
368.057
355.221
311.255
319.231
331.433
346.536
357.573
337.379
327.105
313.802
305.304
301.61
300.501
302.385
308.75
320.425
329.107
319.969
315.252
306.739
302.022
300.745
301.351
304.186
309.171
314.727
316.714
309.482
308.742
306.462
303.648
301.383
300.086
300.04
300.236
300.412
300.632
300.833
300.885
299.998
300.005
300.008
300.007
300.005
300.002
300
300
300
300
300
299.999
300
300
300
300
300
300
300.001
300
300
300
300
300
300
300
300
300
300
300.001
300.001
300
300
300
300
300
300
300
300
300
300
300.001
300.001
300
300
300
300
300
300
300
300
300
300
300.001
300.002
300
300
300
300
300
300
300
300
300
300.001
300.002
300.003
300.001
300
300
300
300
300
300
300
300
300.001
300.004
300.005
300.001
300.001
300
300
300
300
300
300
300.001
300.002
300.007
300.009
300.002
300.001
300
300
300
300
300
300
300.001
300.002
300.009
300.011
300.003
300.001
300
300
300
300
300
300.001
300.001
300.003
300.009
300.004
300.001
300
300
300
300
300
300
300
300
300
300.001
300
300
300
300
300
300
300
300
300
300
300
300
300
300
300
300
300
300
300
300
300
300
300
300
300
300
300
300
300
300
300
300
300
300
300
300
300
300
300
300
300
300
300
300
300
300
300
300
300
300
300
300
300
300
300
300
300
300
300
300
300
300
300
300
300
300
300
300
300
300
300
300
300
300
300
300
300
300
300
300
300
300
300
300
300
300
300
300
300
300
300
300
300
300
300
300
300
300
300
300
300
300
300
300
300
300
300
300
300
300
300
300
300
300
300
300
300
300
300
300
300
300
300
300
300
300
300
300
300
300
300
300
300
300
300
300
300
300
300
300
300
300
300
300
300
300
300
300
300
300
300
300
300
300
300
300
300
300
300
300
300
300
300
300
300
300
300
300
300
300
300
300
300
300
300
300
300
300
300
300
300
300
300
300
300
300
300
300
300
300
300
300
300
300
300
300
300
300
300.001
300.001
300.001
300
300
300
300.001
300.021
300.056
300.079
300.085
300.085
300.872
300.875
300.828
300.579
300.25
300.016
300.068
300.835
302.052
303.321
303.866
303.902
309.217
308.837
306.787
303.596
301.322
300.125
300.179
301.401
304.226
309.587
314.501
315.715
316.5
315.776
311.35
305.536
302.052
300.38
301.48
307.392
318.406
344.096
394.489
464.528
468.291
470.506
472.086
470.899
470.172
416.473
417.121
415.974
409.925
403.751
351.236
357.973
366.17
373.197
375.735
350.476
346.067
337.517
329.199
323.103
310.563
315.969
324.522
333.319
337.081
324.34
322.068
314.02
306.269
302.693
306.721
311.582
319.763
326.163
327.704
343.22
341.013
335.113
327.207
321.708
338.434
343.794
350.332
354.898
358.047
383.513
382.853
379.318
374.116
369.056
416.837
421.027
424.348
424.182
423.214
473.225
474.068
475.186
474.042
472.399
469.571
409.878
362.946
334.12
318.222
305.182
303.624
313.938
327.861
354.572
400.998
465.982
459.126
382.063
333.382
311.75
303.812
300.541
300.383
302.93
309.78
329.855
377.624
457.177
449.013
361.224
317.229
303.557
300.57
300.047
300.026
300.127
301.242
309.491
346.497
437.36
436.047
346.416
309.954
301.441
300.189
300.063
300.059
300.232
301.777
311.506
350.259
439.162
446.879
358.901
314.729
302.437
300.329
300.07
300.045
300.192
301.595
311.193
351.304
441.762
433.541
341.113
307.454
300.923
300.126
300.05
300.051
300.184
301.37
309.643
346.672
437.894
449.305
360.598
315.404
302.7
300.4
300.056
300.019
300.173
301.529
310.712
349.987
441.784
435.626
342.515
307.669
300.863
300.076
300.012
300.15
300.885
302.474
307.472
315.678
319.759
328.516
336.604
356.633
405.671
465.59
464.243
397.329
346.373
327.375
320.849
309.454
314.699
332.472
383.797
461.789
457.443
371.218
321.133
306.28
302.875
300.575
302.14
313.412
360.159
451.826
443.008
349.304
309.265
301.077
300.195
300.301
302.145
315.055
362.126
451.852
456.974
371.89
321.824
305.399
301.599
305.278
311.105
330.126
381.174
460.966
464.738
392.006
341.246
320.614
313.306
324.898
332.918
353.741
403.553
466.636
467.186
409.234
362.967
340.853
331.985
321.203
317.439
308.853
302.978
300.862
300.163
300.17
301.284
303.555
308.017
312.786
314.298
309.354
308.649
306.156
303.136
301.131
300.135
300.076
300.617
301.161
301.738
302.133
302.213
300.039
300.056
300.056
300.046
300.032
300.012
300.001
300
300
300
300
300
300
300
300
300
300
300.001
300
300
300
300
300
300
300
300
300
300
300
300
300.001
300
300
300
300
300
300
300
300
300
300
300.001
300.001
300
300
300
300
300
300
300
300
300
300
300.001
300.001
300
300
300
300
300
300
300
300
300
300
300.002
300.002
300.001
300
300
300
300
300
300
300
300
300.001
300.003
300.002
300.001
300
300
300
300
300
300
300
300
300.001
300.003
300.004
300.001
300
300
300
300
300
300
300
300
300.001
300.005
300.006
300.001
300.001
300
300
300
300
300
300
300.001
300.002
300.007
300.011
300.003
300.001
300.001
300
300
300
300
300.001
300.002
300.004
300.013
300.014
300.004
300.001
300.001
300
300
300
300
300.001
300.002
300.004
300.012
300.005
300.001
300.001
300
300
300
300
300
300
300
300
300.001
300.001
300
300
300
300
300
300
300
300
300
300
300
300
300
300
300
300
300
300
300
300
300
300
300
300
300
300
300
300
300
300
300
300
300
300
300
300
300
300
300
300
300
300
300
300
300
300
300
300
300
300
300
300
300
300
300
300
300
300
300
300
300
300
300
300
300
300
300
300
300
300
300
300
300
300
300
300
300
300
300
300
300
300
300
300
300
300
300
300
300
300
300
300
300
300
300
300
300
300
300
300
300
300
300
300
300
300
300
300
300
300
300
300
300
300
300
300
300
300
300
300
300
300
300
300
300
300
300
300
300
300
300
300
300
300
300
300
300
300
300
300
300
300
300
300
300
300
300
300
300
300
300
300
300
300
300
300
300
300
300
300
300
300
300
300
300
300
300
300
300
300
300
300
300
300
300
300
300
300
300
300
300
300
300
300
300
300
300
300
300
300
300
300
300
300
300
300
300
300
300
300
300
300
300
300
300
300
300
300
300
300.001
300.001
300.001
300
300
300
300.001
300.02
300.046
300.063
300.065
300.065
300.73
300.737
300.707
300.518
300.242
300.018
300.081
300.975
302.18
303.136
303.466
303.489
309.106
308.872
307.447
304.323
301.755
300.183
300.395
302.554
305.019
307.272
308.222
308.382
317.736
317.453
314.389
308.685
304.342
301.646
302.262
307.058
311.481
315.726
317.856
318.363
336.088
335.34
330.699
322.471
316.245
313.111
317.161
321.638
329.216
338.466
343.983
345.447
351.572
349.777
344.122
335.054
327.391
361.851
368.319
376.592
382.29
384.806
402.733
400.044
394.984
388.026
382.906
411.451
415.319
420.57
424.648
427.615
456.539
454.918
452.328
448.885
446.172
482.285
483.238
484.457
485.372
485.662
488.467
488.341
487.819
487.04
486.408
458.76
460.893
463.512
465.309
466.118
444.544
443.318
439.881
435.186
431.477
408.141
413.046
419.775
425.084
426.853
413.081
411.111
404.401
395.443
388.566
345.967
356.635
369.827
379.042
382.036
374.838
373.513
366.92
355.305
343.806
332.373
340.774
384.199
404.426
427.892
456.188
485.627
484.14
451.636
421.515
398.101
378.823
333.696
323.372
355.39
377.801
406.909
442.505
481.061
473.471
421.196
379.167
350.031
331.091
310.184
308.249
330.017
348.61
377.809
420.538
473.456
464.963
398.228
351.683
325.73
312.639
303.064
302.863
312.085
324.73
350.249
396.888
464.574
456.651
376.62
329.176
309.501
302.873
300.421
300.076
300.504
303.282
316.598
360.244
448.345
447.895
359.804
316.54
303.346
300.588
300.173
300.14
300.292
301.69
310.479
346.732
435.598
439.507
351.479
312.437
302.14
300.354
300.124
300.141
300.492
302.997
316.283
361.234
447.971
443.906
354.861
313.062
302.14
300.321
300.089
300.106
300.246
301.393
309.249
345.223
436.611
440.809
351.054
311.845
302.033
300.358
300.113
300.126
300.702
303.744
318.242
365.128
451.646
459.217
379.006
326.351
306.399
301.365
300.163
300.07
300.895
305.043
323.426
375.449
457.898
449.996
361.749
315.984
302.806
300.383
300.026
300.016
300.154
301.53
311.225
352.2
443.962
449.617
359.944
314.348
302.148
300.225
300.02
300.184
301
303.653
310.477
318.482
320.923
331.336
340.977
364.003
406.338
464.9
464.171
403.028
356.415
333.123
325.759
314.359
321.048
343.117
395.75
463.391
460.822
386.339
331.904
311.488
305.847
301.693
305.694
324.188
377.63
458.468
455.752
369.399
318.434
302.997
300.425
302.1
307.92
328.463
380.595
459.839
462.992
389.23
336.356
313.171
305.291
310.709
319.587
343.368
396.452
465.366
466.947
403.509
352.185
328.613
319.825
329.817
338.224
362.912
406.847
465.729
465.278
407.476
367.182
344.464
334.254
322.782
320.816
313.101
305.352
301.702
300.363
300.395
302.377
305.351
309.646
312.521
313.016
310.413
309.87
307.424
304.176
301.901
300.301
300.13
301.028
302.402
304.185
305.436
305.727
301.113
301.121
300.976
300.71
300.43
300.064
300.002
300.002
300.003
300.005
300.009
300.016
300.001
300.001
300
300
300.001
300.001
300.002
300.001
300
300
300
300
300
300
300
300
300
300.001
300.001
300
300
300
300
300
300
300
300
300
300
300.001
300.001
300
300
300
300
300
300
300
300
300
300.001
300.002
300.002
300.001
300
300
300
300
300
300
300
300
300
300.001
300.002
300
300
300
300
300
300
300
300
300
300
300.002
300.002
300
300
300
300
300
300
300
300
300
300.001
300.003
300.003
300.001
300
300
300
300
300
300
300
300
300.001
300.004
300.005
300.001
300
300
300
300
300
300
300
300.001
300.001
300.005
300.006
300.002
300.001
300
300
300
300
300
300
300.001
300.002
300.008
300.008
300.002
300.001
300
300
300
300
300
300.001
300.001
300.003
300.009
300.015
300.004
300.002
300.001
300
300
300
300
300.001
300.002
300.004
300.016
300.015
300.005
300.002
300.001
300.001
300
300
300
300
300.001
300.002
300.006
300.002
300.001
300
300
300
300
300
300
300
300
300
300.001
300
300
300
300
300
300
300
300
300
300
300
300
300
300
300
300
300
300
300
300
300
300
300
300
300
300
300
300
300
300
300
300
300
300
300
300
300
300
300
300
300
300
300
300
300
300
300
300
300
300
300
300
300
300
300
300
300
300
300
300
300
300
300
300
300
300
300
300
300
300
300
300
300
300
300
300
300
300
300
300
300
300
300
300
300
300
300
300
300
300
300
300
300
300
300
300
300
300
300
300
300
300
300
300
300
300
300
300
300
300
300
300
300
300
300
300
300
300
300
300
300
300
300
300
300
300
300
300
300
300
300
300
300
300
300
300
300
300
300
300
300
300
300
300
300
300
300
300
300
300
300
300
300
300
300
300
300
300
300
300
300
300
300
300
300
300
300
300
300
300
300
300
300
300
300
300
300
300
300
300
300
300
300
300
300
300
300
300
300
300
300
300
300
300
300
300
300
300
300
300
300
300
300
300
300
300
300
300
300
300
300
300
300
300
300
300
300
300
300
300.001
300.001
300.001
300.048
300.049
300.049
300.038
300.017
300.001
300.018
300.219
300.444
300.577
300.585
300.573
302.896
302.904
302.746
302.061
301.027
300.088
300.094
301.016
301.833
302.276
302.315
302.281
307.212
307.148
306.621
305.091
303.029
300.553
300.66
303.15
304.754
305.747
306.019
306.051
317.83
317.368
315.718
312.444
308.458
302.716
314.266
322.678
330.17
337.723
342.193
343.543
341.765
340.729
336.717
329.638
322.253
312.391
326.623
341.877
352.879
361.532
364.93
365.215
359.736
358.161
351.648
342.187
334.335
328.001
333.26
340.627
349.13
360.039
368.785
371.319
383.071
378.769
367.726
356.018
347.327
365.889
375.815
388.001
399.523
404.749
417.904
412.99
402.427
390.421
379.525
407.455
416.764
426.079
433.643
437.102
461.98
459.875
455.789
450.505
445.141
482.441
484.018
485.581
486.769
487.099
485.323
456.519
427.786
405.86
391.823
384.877
399.056
422.565
453.486
484.805
483.11
447.781
412.502
386.502
372.223
361.257
374.267
401.259
440.901
480.988
478.857
434.027
390.915
364.494
353.963
349.342
356.58
380.445
425.672
476.024
468.808
408.02
362.44
343.561
339.479
329.727
331.147
344.068
353.388
381.697
426.659
476.133
472.447
417.181
371.625
346.515
336.903
325.022
325.869
374.188
391.949
415.312
447.247
482.755
481.357
442.835
406.073
375.754
352.769
317.409
316.063
351.61
374.436
405.021
442.384
481.283
473.317
420.04
377.241
348.333
330.09
308.074
307.728
328.705
346.507
375.155
418.261
472.688
464.011
395.599
348.972
323.813
311.538
302.835
300.507
302.785
309.174
328.521
375.799
456.248
456.296
376.056
328.92
309.58
303.145
300.819
300.38
300.892
303.897
317.481
360.803
448.234
436.007
348.17
311.629
302.191
300.507
300.293
300.242
300.568
302.759
313.973
353.668
440.586
449.28
364.183
318.49
303.906
300.784
300.259
300.157
300.537
302.967
315.451
358.695
445.971
439.401
349.679
311.662
302.171
300.471
300.199
300.223
300.66
303.037
314.543
355.391
443.225
453.239
369.087
321.454
305.223
301.207
300.251
300.33
302.077
308.153
329.367
381.728
459.915
453.068
374.135
325.934
307.027
301.691
300.325
300.153
301.141
305.691
323.806
372.563
452.851
452.283
370.543
321.826
304.691
300.792
300.068
300.025
300.415
303.091
317.067
363.229
449.345
450.846
366.07
318.684
303.518
300.482
300.034
300.025
300.345
303.037
318.315
368.434
454.905
459.918
383.587
333.609
311.707
303.969
300.677
301.914
304.17
308.968
317.424
324.21
325.926
338.772
350.632
373.895
413.784
468.993
469.562
414.019
371.646
346.451
336.153
328.331
339.9
365.576
413.1
470.995
469.601
408.693
359.287
332.338
319.683
313.261
325.88
353.227
403.706
467.701
464.309
394.746
344.648
319.132
308.208
317.877
333.29
361.807
408.896
469.209
471.933
415.606
368.39
338.647
322.631
329.032
344.178
372.666
419.067
473.353
474.027
421.739
376.795
350.18
336.974
342.348
355.236
380.335
421.071
472.685
472.355
421.213
382.143
358.04
343.932
328.83
327.644
322.342
314.122
307.897
305.367
302.054
305.52
310.166
315.172
317.312
317.641
315.382
315.183
312.468
307.404
303.533
300.839
300.572
302.86
305.227
307.534
308.436
308.5
306.927
306.827
305.866
303.931
302.112
300.384
300.262
301.398
302.555
303.771
304.427
304.492
301.885
301.898
301.63
301.102
300.572
300.103
300.044
300.214
300.336
300.433
300.478
300.468
300.018
300.011
300.006
300.004
300.002
300.002
300.001
300
300
300
300
300
300
300
300
300
300
300.001
300.003
300.001
300
300
300
300
300
300
300
300
300.001
300.003
300.002
300.001
300
300
300
300
300
300
300
300
300.001
300.002
300.004
300.001
300.001
300
300
300
300
300
300
300.001
300.002
300.006
300.003
300.001
300
300
300
300
300
300
300
300
300.001
300.003
300.004
300.001
300.001
300
300
300
300
300
300
300
300.001
300.002
300.004
300.001
300
300
300
300
300
300
300
300
300.001
300.005
300.004
300.001
300
300
300
300
300
300
300
300
300.001
300.006
300.008
300.002
300.001
300
300
300
300
300
300
300.001
300.002
300.01
300.013
300.003
300.001
300
300
300
300
300
300.001
300.001
300.003
300.016
300.009
300.002
300.001
300
300
300
300
300
300.001
300.001
300.003
300.01
300.01
300.003
300.001
300.001
300
300
300
300.001
300.001
300.002
300.005
300.017
300.019
300.005
300.002
300.001
300
300
300.001
300.001
300.001
300.003
300.006
300.019
300.007
300.002
300.001
300
300
300
300
300
300
300
300.001
300.002
300.001
300
300
300
300
300
300
300
300
300
300
300
300
300
300
300
300
300
300
300
300
300
300
300
300
300
300
300
300
300
300
300
300
300
300
300
300
300
300
300
300
300
300
300
300
300
300
300
300
300
300
300
300
300
300
300
300
300
300
300
300
300
300
300
300
300
300
300
300
300
300
300
300
300
300
300
300
300
300
300
300
300
300
300
300
300
300
300
300
300
300
300
300
300
300
300
300
300
300
300
300
300
300
300
300
300
300
300
300
300
300
300
300
300
300
300
300
300
300
300
300
300
300
300
300
300
300
300
300
300
300
300
300
300
300
300
300
300
300
300
300
300
300
300
300
300
300
300
300
300
300
300
300
300
300
300
300
300
300
300
300
300
300
300
300
300
300
300
300
300
300
300
300
300
300
300
300
300
300
300
300
300
300
300
300
300
300
300
300
300
300
300
300
300
300
300
300
300
300
300
300
300
300
300
300
300
300
300
300
300
300
300
300
300
300
300
300
300
300
300
300
300
300
300
300
300
300
300
300
300
300
300
300
300
300
300
300
300
300
300
300
300
300
300
300.001
300.001
300.034
300.036
300.037
300.03
300.015
300.001
300.018
300.194
300.369
300.454
300.446
300.434
300.32
300.331
300.35
300.302
300.172
300.017
300.101
300.96
301.563
301.817
301.788
301.751
301.32
301.357
301.42
301.296
300.875
300.111
300.729
303.063
304.247
304.852
304.958
304.956
316.408
316
314.708
312.153
308.736
302.849
302.935
308.71
311.575
313.513
314.37
314.593
339.071
338.593
335.835
329.423
321.914
311.072
322.937
339.199
348.735
354.438
355.588
355.23
349.357
348.561
344.146
336.449
329.54
324.152
320.367
322.649
327.068
333.715
338.856
340.218
349.41
347.265
340.271
332.319
327.25
323.752
328.914
333.553
339.286
348.048
356.974
360.167
371.029
365.922
355.401
346.652
341.29
338.004
346.007
388.526
409.226
432.634
458.813
486.289
486.907
487.316
487.803
488.124
488.141
465.514
464.888
463.836
462.207
460.758
435.173
437.864
441.052
443.275
443.886
427.218
426
421.905
416.416
412.069
392.694
398.938
406.787
412.797
414.452
388.877
386.435
377.45
364.06
352.65
347.282
359.573
370.681
376.176
376.99
362.749
361.681
356.539
346.669
336.23
323.298
327.222
334.118
344.466
355.939
362.987
365.026
351.73
350.366
345.179
336.306
327.685
322.69
322.631
353.121
373.921
402.325
438.836
479.69
480.927
481.902
483.073
483.89
484.094
451.699
450.305
447.97
444.859
442.322
406.468
409.91
414.409
417.92
420.861
395.734
393.227
389.138
383.066
378.207
358.095
364.544
372.098
376.641
378.291
348.299
347.169
342.593
334.246
326.184
340.539
351.16
363.605
371.604
374.325
406.388
421.428
440.662
464.08
487.877
487.635
462.797
438.711
418.803
403.761
396.033
412.348
434.256
460.275
486.837
485.882
457.139
428.785
404.572
386.081
379.032
399.456
425.208
454.995
485.187
484.733
453.519
423.103
396.629
374.884
336.835
331.732
370.527
393.762
421.655
452.938
484.548
484.488
453.228
425.019
402.1
380.278
335.243
327.181
375.663
397.449
419.18
448.895
483.108
464.685
398.855
354.482
337.769
334.028
324.879
323.641
331.584
334.666
349.81
392.963
461.887
469.377
409.735
364.339
341.613
333.042
323.158
324.086
370.959
387.228
409.891
442.962
481.344
480.284
440.082
406.943
385.044
369.12
323.248
315.33
349.43
371.939
402.566
440.616
480.693
480.15
439.016
400.582
370.222
348.204
315.546
308.106
328.445
345.931
374.304
417.379
472.302
463.884
395.398
348.862
323.869
311.748