/*--------------------------------*- C++ -*----------------------------------*\
| =========                 |                                                 |
| \\      /  F ield         | OpenFOAM: The Open Source CFD Toolbox           |
|  \\    /   O peration     | Version:  2212                                  |
|   \\  /    A nd           | Website:  www.openfoam.com                      |
|    \\/     M anipulation  |                                                 |
\*---------------------------------------------------------------------------*/
FoamFile
{
    version     2.0;
    format      ascii;
    arch        "LSB;label=32;scalar=64";
    class       volScalarField;
    location    "20";
    object      p;
}
// * * * * * * * * * * * * * * * * * * * * * * * * * * * * * * * * * * * * * //

dimensions      [0 2 -2 0 0 0 0];

internalField   nonuniform List<scalar> 
248319
(
0
0.0192798
0.0402711
0.0499139
0.0579542
0.0646573
0.0702511
0.109354
0.103288
0.096015
0.0872926
0.0768334
0.0510436
0.0498351
0.0761393
0.0872731
0.0965696
0.104328
0.110799
0.08126
0.0763897
0.0706007
0.0636722
0.0553457
0.033092
0.0137208
0.0280117
0.0342255
0.0395264
0.0440917
0.048066
0.0626308
0.0577929
0.0519951
0.0450558
0.0367463
0.0196838
-0.0539512
-0.0471903
-0.0434445
-0.04032
-0.0376989
-0.0355224
-0.0212334
-0.0247014
-0.0288603
-0.0338387
-0.0398047
-0.0507668
-0.0555506
-0.0402219
-0.0334787
-0.0278629
-0.0231822
-0.0192654
0.0634659
0.0574264
0.0501776
0.041486
0.0310636
0.000538289
0.0309063
0.0593133
0.069287
0.077602
0.0845301
0.0903094
0.100132
0.094485
0.08771
0.079583
0.0698394
0.0358974
0.0499442
0.074968
0.0847311
0.0928683
0.0996522
0.105307
0.109524
0.103001
0.0951798
0.0858034
0.074564
0.0473093
0.0190709
0.0397431
0.04637
0.0518965
0.0565794
0.0606283
-0.0356356
-0.038366
-0.0410962
-0.0438244
-0.0465542
-0.0535766
-0.0515078
-0.0438581
-0.0414693
-0.0392284
-0.0370899
-0.0350249
-0.140391
-0.140801
-0.141192
-0.141561
-0.1419
-0.145276
-0.144832
-0.141952
-0.140971
-0.140156
-0.139474
-0.138901
-0.132523
-0.133801
-0.135347
-0.137185
-0.139395
-0.144452
-0.145915
-0.139386
-0.136713
-0.134485
-0.132615
-0.131074
-0.134
-0.135638
-0.137616
-0.139976
-0.14282
-0.150204
-0.0695892
-0.0525856
-0.0457642
-0.0400778
-0.0353443
-0.0313819
0.0473129
0.0406926
0.0327516
0.02322
0.0117924
-0.0194711
-0.00916735
0.0315347
0.0452708
0.056724
0.0662746
0.074237
0.0901685
0.0833632
0.0752025
0.0654111
0.0536683
0.010407
0.00964939
0.0523092
0.0641469
0.0740137
0.0822369
0.0890931
0.0978742
0.092293
0.0855961
0.0775591
0.067917
0.0344729
0.0489351
0.0735134
0.0833119
0.091476
0.0982793
0.103946
0.109469
0.102774
0.0947474
0.0851248
0.0735883
0.0456286
0.0147771
0.0354032
0.0421885
0.0479016
0.0527833
0.0570297
-0.0392458
-0.0419618
-0.0446796
-0.0473978
-0.0501182
-0.0587005
-0.147631
-0.143325
-0.142607
-0.141889
-0.141171
-0.140453
-0.139451
-0.140155
-0.140854
-0.141553
-0.142252
-0.146197
-0.244008
-0.242362
-0.242289
-0.242216
-0.242144
-0.24207
-0.242976
-0.242964
-0.24293
-0.24287
-0.242773
-0.24377
-0.243302
-0.242395
-0.242268
-0.24216
-0.242075
-0.242007
-0.238689
-0.239011
-0.239392
-0.239858
-0.240409
-0.242621
-0.242874
-0.239822
-0.239102
-0.2385
-0.238
-0.237574
-0.238137
-0.238605
-0.239169
-0.239837
-0.240637
-0.244241
-0.245677
-0.241519
-0.240543
-0.239735
-0.239051
-0.238492
-0.136235
-0.138079
-0.140297
-0.142952
-0.14614
-0.154336
-0.0774049
-0.0596873
-0.0525322
-0.0465659
-0.0416004
-0.037454
0.0342133
0.027436
0.019302
0.0095373
-0.00216526
-0.0328535
-0.0252936
0.0126247
0.0266559
0.0383547
0.0481079
0.0562353
0.0568158
0.0485481
0.038625
0.0267212
0.0124406
-0.0247397
-0.00913743
0.0306819
0.0447033
0.0563897
0.066132
0.074253
0.0739263
0.0657245
0.0558834
0.0440775
0.0299082
-0.00976283
0.00871932
0.0514067
0.0634062
0.0734036
0.0817361
0.0886809
0.0975706
0.0919111
0.0851219
0.0769733
0.0671969
0.0335486
0.0480644
0.0729779
0.0829063
0.0911795
0.0980747
0.103818
0.109419
0.102613
0.0944502
0.0846648
0.0729321
0.0445265
0.0132829
0.0339907
0.0409635
0.0468503
0.0518905
0.0562774
-0.0407254
-0.0434485
-0.0461711
-0.0488938
-0.0516179
-0.060403
-0.148689
-0.144134
-0.143459
-0.142783
-0.142108
-0.141433
-0.242712
-0.242788
-0.242864
-0.242941
-0.243017
-0.245106
-0.244492
-0.242471
-0.242398
-0.242327
-0.242255
-0.242181
-0.343423
-0.34342
-0.343418
-0.343417
-0.343413
-0.344192
-0.343962
-0.343398
-0.34342
-0.343441
-0.343463
-0.343484
-0.34422
-0.344167
-0.344103
-0.344026
-0.343931
-0.344019
-0.343688
-0.343593
-0.343645
-0.343695
-0.343735
-0.343769
-0.341966
-0.342013
-0.342066
-0.342134
-0.342215
-0.343041
-0.342993
-0.341737
-0.341609
-0.341496
-0.341408
-0.341341
-0.341485
-0.341567
-0.341677
-0.341811
-0.341962
-0.343486
-0.343968
-0.342152
-0.341965
-0.3418
-0.341669
-0.341557
-0.340773
-0.340967
-0.341183
-0.341453
-0.341773
-0.34402
-0.246069
-0.241103
-0.239726
-0.23858
-0.237618
-0.236832
-0.134526
-0.136844
-0.139632
-0.142972
-0.146974
-0.156233
-0.081843
-0.0633191
-0.0553519
-0.0487074
-0.0431851
-0.0385628
0.0239692
0.0174904
0.00971335
0.000381498
-0.010804
-0.0405148
-0.0341864
0.00126836
0.0135836
0.0238523
0.0324125
0.0395458
0.0405562
0.0333848
0.0247796
0.0144557
0.00207118
-0.0331033
-0.0329172
0.00218537
0.014557
0.0248685
0.0334636
0.0406247
0.0567185
0.0484149
0.0384505
0.0264977
0.0121551
-0.024881
-0.0250478
0.0120444
0.0263874
0.0383393
0.0483
0.0565994
0.0737332
0.0655201
0.055664
0.0438346
0.0296427
-0.01011
0.00827324
0.0511135
0.0631499
0.0731752
0.0815339
0.088497
0.0974476
0.0917688
0.0849573
0.0767814
0.0669674
0.0331417
0.0476801
0.072776
0.0827463
0.0910525
0.0979754
0.103742
0.109375
0.102523
0.0943063
0.0844541
0.0726429
0.0440574
0.0127282
0.0335522
0.0405937
0.0465398
0.051632
0.0560604
-0.0412078
-0.0439267
-0.0466447
-0.0493635
-0.0520837
-0.06101
-0.149293
-0.14473
-0.144051
-0.143371
-0.142691
-0.142012
-0.243168
-0.243243
-0.243321
-0.243398
-0.243474
-0.245551
-0.344832
-0.344007
-0.344007
-0.344007
-0.344007
-0.344007
-0.343695
-0.343695
-0.343695
-0.343695
-0.343695
-0.34453
-0.444298
-0.443972
-0.443972
-0.443972
-0.443972
-0.443972
-0.443821
-0.443819
-0.443818
-0.443817
-0.443815
-0.4441
-0.444012
-0.443858
-0.443873
-0.443887
-0.443901
-0.443914
-0.444473
-0.444443
-0.444404
-0.444357
-0.444302
-0.444154
-0.444008
-0.444142
-0.444199
-0.444252
-0.444296
-0.444329
-0.443412
-0.443412
-0.443406
-0.4434
-0.443395
-0.443651
-0.443726
-0.443281
-0.443277
-0.443263
-0.443259
-0.443244
-0.443605
-0.443627
-0.443624
-0.443645
-0.443661
-0.44417
-0.444744
-0.444205
-0.44417
-0.444155
-0.444145
-0.444122
-0.444424
-0.444449
-0.444485
-0.444521
-0.444575
-0.445196
-0.44541
-0.444592
-0.444477
-0.444375
-0.4443
-0.444236
-0.338906
-0.339273
-0.339693
-0.340207
-0.340821
-0.343709
-0.245863
-0.239677
-0.237497
-0.235678
-0.234151
-0.232892
-0.124327
-0.127579
-0.131493
-0.136188
-0.141825
-0.154718
-0.0825173
-0.0606375
-0.0513609
-0.0436248
-0.0371929
-0.0318069
0.0161638
0.00996052
0.00251867
-0.0064101
-0.0171198
-0.0446117
-0.0407216
-0.0115265
-0.00121854
0.00737766
0.0145394
0.0205127
0.0212494
0.0153293
0.00822831
-0.000294523
-0.0105166
-0.0395575
-0.03933
-0.0103463
-0.00014665
0.00835544
0.0154393
0.0213458
0.0213231
0.0154195
0.00834385
-0.000151267
-0.0103489
-0.0393612
-0.0329681
0.00217832
0.0145396
0.0248421
0.0334248
0.0405774
0.0405303
0.0333785
0.0247986
0.0144982
0.00213806
-0.0330608
-0.0251765
0.0119746
0.0263162
0.0382674
0.0482257
0.056523
0.0736378
0.0654222
0.0555634
0.043731
0.0295361
-0.0102887
0.00808128
0.0510098
0.063051
0.073083
0.0814468
0.0884147
0.0973953
0.0917138
0.0848962
0.0767151
0.0668966
0.0329942
0.0475493
0.0727153
0.0826956
0.0910106
0.0979409
0.103714
0.109365
0.102497
0.0942609
0.084385
0.0725468
0.0439144
0.0125726
0.0335026
0.0405841
0.0465643
0.0516824
0.0561281
-0.0413619
-0.0440903
-0.0468178
-0.0495452
-0.0522737
-0.0612267
-0.14955
-0.144996
-0.144314
-0.143633
-0.14295
-0.142267
-0.243434
-0.243511
-0.243589
-0.243664
-0.243742
-0.245799
-0.345044
-0.344241
-0.344241
-0.344241
-0.344241
-0.344241
-0.444398
-0.444398
-0.444398
-0.444398
-0.444398
-0.4447
-0.444514
-0.444194
-0.444194
-0.444194
-0.444194
-0.444194
-0.543755
-0.543755
-0.543755
-0.543755
-0.543755
-0.543891
-0.543707
-0.543567
-0.543567
-0.543567
-0.543567
-0.543567
-0.543457
-0.543457
-0.543458
-0.543456
-0.543455
-0.543576
-0.543545
-0.5435
-0.543507
-0.543514
-0.543521
-0.543528
-0.543912
-0.543896
-0.543877
-0.543853
-0.543824
-0.543691
-0.543694
-0.543834
-0.543872
-0.543897
-0.543916
-0.543948
-0.543626
-0.54361
-0.543619
-0.543606
-0.543598
-0.543641
-0.543952
-0.543862
-0.543856
-0.543873
-0.543853
-0.543862
-0.544604
-0.544595
-0.544615
-0.544604
-0.544609
-0.544643
-0.545648
-0.54573
-0.54573
-0.545733
-0.545723
-0.545727
-0.547075
-0.547079
-0.547084
-0.547085
-0.547091
-0.546867
-0.548143
-0.548486
-0.548461
-0.548456
-0.548436
-0.548426
-0.549329
-0.549353
-0.549393
-0.549427
-0.549475
-0.549104
-0.445356
-0.444163
-0.443891
-0.443666
-0.443481
-0.443323
-0.336096
-0.336754
-0.337525
-0.338459
-0.339584
-0.343338
-0.246684
-0.23899
-0.235676
-0.23291
-0.230595
-0.228674
-0.121773
-0.125812
-0.130678
-0.136516
-0.143519
-0.159737
-0.109603
-0.081526
-0.0712093
-0.0626036
-0.0554316
-0.0494493
-0.0145131
-0.020435
-0.0275282
-0.0360451
-0.0462584
-0.0736551
-0.0681844
-0.035833
-0.0257821
-0.0174046
-0.0104165
-0.00458811
-0.00460922
-0.0104276
-0.0174015
-0.0257688
-0.0358139
-0.0676404
-0.0675532
-0.0358294
-0.0257839
-0.0174134
-0.0104378
-0.00462311
-0.00466801
-0.0104809
-0.0174586
-0.0258257
-0.0358694
-0.0676188
-0.0677078
-0.0359244
-0.0258751
-0.0175024
-0.0105249
-0.00470912
0.0212868
0.0153834
0.00830544
-0.000191849
-0.0103917
-0.0394378
-0.0394993
-0.0104306
-0.000229773
0.0082717
0.0153546
0.0212578
0.0405021
0.0333478
0.0247638
0.0144628
0.00210113
-0.0331268
-0.0252482
0.011937
0.026277
0.0382275
0.0481863
0.0564856
0.0735944
0.0653788
0.0555203
0.04369
0.0294964
-0.0103661
0.00801428
0.0509761
0.0630162
0.0730498
0.0814138
0.0883814
0.097378
0.0916953
0.0848765
0.0766958
0.0668815
0.0329579
0.0475212
0.0727034
0.0826833
0.0909991
0.0979297
0.103705
0.109359
0.102489
0.0942498
0.0843702
0.0725295
0.0438864
0.0125418
0.0334962
0.0405817
0.046564
0.051685
0.056132
-0.0413892
-0.0441203
-0.0468487
-0.0495768
-0.0523071
-0.0612666
-0.149629
-0.145084
-0.144402
-0.143719
-0.143038
-0.142355
-0.243559
-0.243636
-0.243712
-0.243789
-0.243866
-0.245908
-0.34517
-0.344382
-0.344382
-0.344382
-0.344382
-0.344382
-0.444563
-0.444563
-0.444563
-0.444563
-0.444563
-0.444851
-0.544305
-0.544201
-0.544201
-0.544201
-0.544201
-0.544201
-0.543972
-0.543972
-0.543972
-0.543972
-0.543972
-0.544091
-0.643196
-0.643158
-0.643158
-0.643158
-0.643158
-0.643158
-0.642861
-0.642861
-0.642861
-0.642861
-0.642861
-0.642919
-0.642715
-0.642647
-0.642647
-0.642647
-0.642647
-0.642647
-0.642531
-0.642531
-0.642531
-0.642531
-0.642531
-0.642594
-0.642573
-0.642547
-0.64255
-0.642552
-0.642554
-0.642557
-0.6428
-0.642793
-0.642786
-0.642778
-0.642766
-0.642691
-0.642789
-0.642883
-0.642892
-0.642904
-0.642923
-0.642922
-0.642982
-0.642991
-0.64298
-0.642982
-0.64298
-0.64295
-0.643464
-0.643518
-0.643524
-0.643521
-0.64352
-0.64352
-0.644596
-0.644601
-0.644591
-0.644603
-0.644593
-0.644415
-0.645864
-0.646251
-0.646255
-0.646244
-0.646253
-0.646248
-0.648483
-0.648485
-0.64849
-0.648493
-0.648489
-0.647835
-0.650222
-0.651173
-0.651178
-0.651173
-0.651166
-0.65117
-0.653673
-0.653674
-0.653681
-0.653686
-0.653688
-0.652527
-0.653236
-0.654554
-0.654529
-0.654521
-0.654499
-0.654495
-0.548972
-0.549044
-0.549124
-0.549216
-0.549329
-0.549097
-0.445076
-0.44324
-0.442671
-0.442195
-0.441798
-0.441475
-0.332432
-0.333585
-0.334936
-0.336573
-0.338539
-0.343598
-0.247319
-0.235398
-0.230358
-0.226155
-0.222635
-0.219729
-0.125708
-0.130365
-0.135951
-0.142653
-0.150692
-0.170161
-0.126787
-0.0995984
-0.089092
-0.0803322
-0.07303
-0.0669441
-0.055369
-0.0619364
-0.0698251
-0.0792825
-0.0906308
-0.121115
-0.102552
-0.0664986
-0.0549567
-0.0453323
-0.0373113
-0.0306218
-0.03077
-0.0374225
-0.0454052
-0.0549813
-0.0664708
-0.101806
-0.101689
-0.0665711
-0.0550814
-0.0455033
-0.03752
-0.0308683
-0.0309425
-0.037595
-0.0455796
-0.0551576
-0.066651
-0.10174
-0.101828
-0.0667117
-0.0552134
-0.0456352
-0.0376478
-0.0309929
-0.0310258
-0.0376806
-0.0456702
-0.0552534
-0.0667566
-0.101898
-0.0677736
-0.0359668
-0.0259126
-0.017535
-0.0105552
-0.00473635
-0.00475075
-0.010573
-0.0175548
-0.0259377
-0.0359917
-0.0678154
-0.0395368
-0.0104537
-0.000250596
0.00824888
0.0153365
0.021239
0.0404865
0.0333302
0.024745
0.0144422
0.00207804
-0.0331665
-0.0252839
0.0119179
0.0262595
0.0382107
0.0481713
0.0564686
0.0735801
0.065365
0.0555066
0.0436765
0.0294835
-0.0103931
0.00800015
0.05097
0.063008
0.0730412
0.081405
0.0883704
0.0973744
0.0916914
0.0848753
0.0766961
0.0668811
0.0329593
0.0475256
0.0727027
0.0826834
0.091
0.0979288
0.103703
0.10936
0.10249
0.0942502
0.0843703
0.0725291
0.043899
0.0125655
0.0335311
0.0406227
0.0466085
0.0517309
0.0561797
-0.0413738
-0.044103
-0.0468309
-0.0495612
-0.052292
-0.061251
-0.149636
-0.145099
-0.144417
-0.143733
-0.14305
-0.142368
-0.243604
-0.24368
-0.243757
-0.243836
-0.243912
-0.245944
-0.345242
-0.344463
-0.344463
-0.344463
-0.344463
-0.344463
-0.444701
-0.444701
-0.444701
-0.444701
-0.444701
-0.444978
-0.544538
-0.544451
-0.544451
-0.544451
-0.544451
-0.544451
-0.644032
-0.644032
-0.644032
-0.644032
-0.644032
-0.644005
-0.643558
-0.643548
-0.643548
-0.643548
-0.643548
-0.643548
-0.742879
-0.742879
-0.742879
-0.742879
-0.742879
-0.742804
-0.742159
-0.74218
-0.74218
-0.74218
-0.74218
-0.74218
-0.741696
-0.741696
-0.741696
-0.741696
-0.741696
-0.741711
-0.741425
-0.74139
-0.74139
-0.74139
-0.74139
-0.74139
-0.741228
-0.741228
-0.741228
-0.741228
-0.741228
-0.741268
-0.741226
-0.741197
-0.741198
-0.741197
-0.741199
-0.741199
-0.741316
-0.741315
-0.741315
-0.741316
-0.741315
-0.741299
-0.741432
-0.741472
-0.741473
-0.741475
-0.741477
-0.741478
-0.74177
-0.74177
-0.741769
-0.741768
-0.741769
-0.741717
-0.742343
-0.742466
-0.742463
-0.742458
-0.742468
-0.742463
-0.743723
-0.743717
-0.743717
-0.743714
-0.743723
-0.743445
-0.745159
-0.745675
-0.745669
-0.745681
-0.745672
-0.745678
-0.748461
-0.74846
-0.748463
-0.748455
-0.748458
-0.747604
-0.750746
-0.752031
-0.752028
-0.752029
-0.75203
-0.752031
-0.755835
-0.755849
-0.755832
-0.755844
-0.755841
-0.754156
-0.757016
-0.758311
-0.758313
-0.758299
-0.758313
-0.758299
-0.752361
-0.752366
-0.752365
-0.752381
-0.752382
-0.750923
-0.650138
-0.651451
-0.651395
-0.651361
-0.651318
-0.651301
-0.546547
-0.546722
-0.5469
-0.547118
-0.547391
-0.547582
-0.444615
-0.441816
-0.440741
-0.439844
-0.439093
-0.43848
-0.329003
-0.330811
-0.332968
-0.335568
-0.338678
-0.345495
-0.255382
-0.239735
-0.233223
-0.227793
-0.223262
-0.219492
-0.140958
-0.14684
-0.153884
-0.162346
-0.172483
-0.201292
-0.161038
-0.133956
-0.123863
-0.115444
-0.108424
-0.102565
-0.0845345
-0.0909632
-0.0986716
-0.107918
-0.119004
-0.153285
-0.152036
-0.118429
-0.107533
-0.0984469
-0.0908756
-0.0845633
-0.0557099
-0.0621258
-0.0698328
-0.0790755
-0.090165
-0.11991
-0.119726
-0.0902012
-0.0791398
-0.0699205
-0.0622379
-0.0558367
-0.0559301
-0.0623298
-0.0700081
-0.0792247
-0.0902812
-0.119785
-0.119873
-0.0903505
-0.0792909
-0.070072
-0.062389
-0.0559896
-0.0560248
-0.0624263
-0.070112
-0.0793358
-0.0904004
-0.119941
-0.119984
-0.0904289
-0.0793633
-0.0701353
-0.0624493
-0.0560427
-0.0310442
-0.0376987
-0.0456907
-0.0552765
-0.0667843
-0.101942
-0.101969
-0.0667973
-0.0552891
-0.0457033
-0.0377114
-0.0310515
-0.00476283
-0.0105808
-0.0175657
-0.0259486
-0.0360048
-0.0678411
-0.0395582
-0.0104658
-0.000260846
0.00824085
0.0153262
0.0212318
0.0404789
0.0333239
0.0247354
0.0144319
0.00206669
-0.0331888
-0.025302
0.0119103
0.0262529
0.0382032
0.0481644
0.0564636
0.0735782
0.065363
0.0555029
0.0436769
0.0294828
-0.0104009
0.00800184
0.0509735
0.0630113
0.0730417
0.0814037
0.0883708
0.0973751
0.0916941
0.0848799
0.0767018
0.0668871
0.0329693
0.0475335
0.0727068
0.0826876
0.0910029
0.0979322
0.103706
0.10936
0.10249
0.0942516
0.0843732
0.0725321
0.0439066
0.0125793
0.0335406
0.040631
0.0466178
0.0517374
0.056184
-0.0413501
-0.0440789
-0.0468077
-0.049538
-0.05227
-0.061226
-0.149622
-0.145087
-0.144405
-0.143721
-0.143037
-0.142355
-0.243618
-0.243694
-0.243772
-0.243851
-0.243927
-0.245954
-0.34529
-0.344516
-0.344516
-0.344516
-0.344516
-0.344516
-0.444822
-0.444822
-0.444822
-0.444822
-0.444822
-0.44509
-0.544781
-0.544717
-0.544717
-0.544717
-0.544717
-0.544717
-0.644587
-0.644587
-0.644587
-0.644587
-0.644587
-0.64451
-0.74467
-0.744936
-0.744936
-0.744936
-0.744936
-0.744936
-0.743816
-0.743816
-0.743816
-0.743816
-0.743816
-0.743658
-0.84383
-0.844186
-0.844186
-0.844186
-0.844186
-0.844186
-0.842445
-0.842445
-0.842445
-0.842445
-0.842444
-0.842257
-0.84113
-0.841211
-0.841211
-0.841211
-0.841211
-0.841211
-0.840416
-0.840416
-0.840416
-0.840416
-0.840416
-0.840395
-0.839958
-0.839947
-0.839947
-0.839947
-0.839947
-0.839947
-0.8397
-0.8397
-0.8397
-0.8397
-0.8397
-0.839726
-0.83964
-0.839607
-0.839607
-0.839607
-0.839605
-0.839604
-0.839628
-0.839632
-0.839637
-0.839641
-0.839646
-0.839664
-0.839794
-0.839797
-0.839795
-0.839788
-0.839784
-0.839782
-0.840157
-0.840162
-0.840153
-0.840158
-0.840159
-0.840111
-0.840736
-0.84087
-0.840863
-0.840867
-0.840871
-0.840867
-0.842102
-0.842102
-0.84211
-0.842098
-0.842104
-0.841818
-0.843524
-0.844048
-0.844048
-0.844049
-0.84405
-0.844045
-0.846891
-0.846905
-0.846891
-0.846897
-0.846899
-0.846014
-0.849279
-0.850684
-0.850675
-0.850678
-0.850686
-0.850679
-0.854993
-0.854982
-0.854988
-0.854979
-0.854989
-0.852841
-0.856026
-0.858663
-0.858659
-0.858659
-0.858658
-0.85866
-0.859246
-0.859251
-0.859248
-0.859251
-0.859248
-0.85802
-0.901201
-0.901611
-0.901599
-0.90159
-0.901579
-0.901572
-0.925075
-0.933757
-0.940994
-0.947028
-0.952057
-0.952054
-0.947027
-0.940997
-0.933765
-0.925088
-0.925099
-0.933776
-0.941009
-0.947033
-0.952048
-0.95205
-0.947028
-0.941008
-0.933781
-0.925117
-0.925133
-0.933794
-0.941018
-0.947024
-0.952042
-0.952194
-0.94703
-0.94084
-0.933407
-0.924488
-0.925698
-0.9344
-0.941656
-0.947695
-0.952732
-0.909926
-0.903492
-0.895771
-0.886505
-0.875383
-0.848796
-0.805071
-0.838037
-0.851604
-0.86291
-0.872331
-0.88018
-0.88003
-0.872015
-0.862391
-0.850845
-0.836987
-0.837531
-0.851202
-0.862593
-0.872086
-0.879994
-0.880007
-0.872096
-0.862599
-0.851202
-0.837526
-0.837525
-0.851208
-0.862604
-0.872102
-0.880018
-0.880035
-0.872114
-0.862611
-0.851206
-0.837524
-0.837521
-0.851206
-0.862613
-0.872119
-0.880038
-0.865306
-0.856816
-0.846627
-0.8344
-0.819727
-0.819728
-0.834397
-0.846622
-0.85681
-0.865298
-0.86529
-0.856803
-0.846617
-0.834394
-0.819729
-0.819727
-0.834391
-0.84661
-0.856791
-0.865277
-0.865263
-0.856783
-0.846603
-0.834388
-0.819728
-0.818247
-0.83334
-0.845917
-0.856394
-0.865122
-0.865072
-0.856239
-0.845638
-0.832913
-0.817642
-0.782412
-0.782349
-0.782421
-0.782405
-0.782386
-0.782367
-0.782363
-0.718842
-0.7189
-0.718945
-0.719014
-0.719092
-0.717998
-0.636462
-0.636862
-0.636486
-0.636187
-0.635918
-0.63571
-0.536325
-0.537038
-0.537868
-0.538892
-0.5401
-0.542439
-0.44617
-0.439743
-0.436584
-0.433958
-0.431753
-0.429928
-0.321618
-0.325325
-0.329758
-0.335086
-0.341471
-0.356628
-0.302163
-0.27399
-0.264387
-0.256386
-0.24971
-0.244148
-0.204076
-0.209657
-0.216367
-0.224409
-0.234047
-0.26025
-0.222139
-0.195121
-0.185135
-0.176805
-0.169864
-0.164077
-0.150276
-0.156537
-0.164044
-0.173051
-0.183856
-0.214795
-0.191924
-0.153464
-0.141743
-0.13197
-0.123824
-0.117033
-0.116787
-0.123475
-0.131491
-0.141112
-0.152656
-0.190292
-0.189918
-0.152602
-0.141093
-0.1315
-0.123511
-0.116845
-0.0846816
-0.0909799
-0.098541
-0.107614
-0.118496
-0.151851
-0.151894
-0.118575
-0.107698
-0.0986318
-0.0910758
-0.0847842
-0.0848484
-0.0911432
-0.0987016
-0.10777
-0.118656
-0.151988
-0.152062
-0.118708
-0.107818
-0.0987465
-0.0911858
-0.0848888
-0.0849082
-0.0912077
-0.0987742
-0.107845
-0.11874
-0.152108
-0.152138
-0.118758
-0.107863
-0.0987896
-0.0912211
-0.084918
-0.0560531
-0.0624624
-0.0701506
-0.0793786
-0.0904461
-0.12001
-0.120025
-0.0904557
-0.0793847
-0.070158
-0.0624676
-0.0560583
-0.0310571
-0.037717
-0.0457089
-0.0552992
-0.0668054
-0.101983
-0.0678514
-0.036012
-0.0259534
-0.0175731
-0.0105856
-0.00476772
0.0212267
0.015321
0.00823568
-0.000268074
-0.0104715
-0.0395684
-0.0331996
0.00206146
0.0144267
0.0247302
0.0333206
0.0404762
0.0564658
0.0481625
0.0382016
0.026253
0.0119103
-0.025308
-0.0103998
0.0294885
0.0436826
0.0555079
0.0653639
0.0735791
0.088371
0.0814063
0.073047
0.0630166
0.0509795
0.00800834
0.0329785
0.0668942
0.0767053
0.0848827
0.0916977
0.0973757
0.103707
0.097933
0.0910027
0.0826897
0.0727125
0.0475419
0.0439169
0.0725378
0.0843767
0.0942526
0.10249
0.10936
0.0561965
0.0517503
0.0466301
0.0406439
0.0335543
0.0125952
-0.0612058
-0.052252
-0.0495209
-0.046792
-0.0440609
-0.041331
-0.142342
-0.143024
-0.143707
-0.14439
-0.145073
-0.149608
-0.245958
-0.24393
-0.243853
-0.243776
-0.243698
-0.243621
-0.344554
-0.344554
-0.344554
-0.344554
-0.344554
-0.345324
-0.445191
-0.44493
-0.44493
-0.444931
-0.444931
-0.44493
-0.544973
-0.544973
-0.544973
-0.544973
-0.544973
-0.545015
-0.645015
-0.645146
-0.645146
-0.645146
-0.645146
-0.645146
-0.746105
-0.746105
-0.746105
-0.746105
-0.746105
-0.745715
-0.84784
-0.848712
-0.848713
-0.848713
-0.848713
-0.848713
-0.846368
-0.846368
-0.846368
-0.846368
-0.846368
-0.845774
-0.94831
-0.949488
-0.949488
-0.949488
-0.949489
-0.949489
-0.945459
-0.945459
-0.945459
-0.945459
-0.945459
-0.944776
-0.942052
-0.942406
-0.942406
-0.942406
-0.942406
-0.942406
-0.940363
-0.940363
-0.940363
-0.940363
-0.940363
-0.940201
-0.939054
-0.939113
-0.939113
-0.939113
-0.939113
-0.939113
-0.938408
-0.938408
-0.938408
-0.938408
-0.938408
-0.938399
-0.938061
-0.938045
-0.938045
-0.938045
-0.938045
-0.938045
-0.937878
-0.937881
-0.937882
-0.937882
-0.937884
-0.937914
-0.937886
-0.937854
-0.937847
-0.937842
-0.937836
-0.937831
-0.937942
-0.937946
-0.93795
-0.937957
-0.937968
-0.93798
-0.938257
-0.938293
-0.938288
-0.938287
-0.938287
-0.938287
-0.938882
-0.938882
-0.938882
-0.938885
-0.938882
-0.938777
-0.939671
-0.939899
-0.939908
-0.939897
-0.939906
-0.939901
-0.941526
-0.94152
-0.94152
-0.941524
-0.941523
-0.941096
-0.943211
-0.94394
-0.943942
-0.943943
-0.94393
-0.943946
-0.947224
-0.94722
-0.947229
-0.947231
-0.94722
-0.946002
-0.949072
-0.951225
-0.95123
-0.951233
-0.951223
-0.951226
-0.955653
-0.955639
-0.955652
-0.955648
-0.955645
-0.951597
-0.96768
-0.985589
-0.991726
-0.996839
-1.0011
-1.00465
-1.00409
-1.00408
-1.00409
-1.00409
-1.00409
-1.00058
-1.00059
-1.00059
-1.00059
-1.0006
-0.996408
-0.996402
-0.996393
-0.996387
-0.996377
-0.991328
-0.991341
-0.991352
-0.991372
-0.99139
-0.985355
-0.985326
-0.985302
-0.985288
-0.985267
-0.969888
-0.96989
-0.969909
-0.969922
-0.969936
-1.05307
-1.05304
-1.05303
-1.05302
-1.053
-1.057
-1.05701
-1.05704
-1.05706
-1.05709
-1.05953
-1.05951
-1.0595
-1.05948
-1.05947
-1.06153
-1.06153
-1.06155
-1.06156
-1.06157
-1.06327
-1.06326
-1.06325
-1.06325
-1.06325
-1.06467
-1.06468
-1.06467
-1.06468
-1.06468
-1.06513
-1.06368
-1.06192
-1.05982
-1.05729
-1.05274
-1.05248
-1.05787
-1.06044
-1.06258
-1.06436
-1.06584
-1.00574
-1.00226
-0.998087
-0.993078
-0.987062
-0.965375
-0.902006
-0.904914
-0.929485
-0.937241
-0.943708
-0.949093
-0.953575
-0.910396
-0.904627
-0.897706
-0.889402
-0.879437
-0.851446
-0.807349
-0.841171
-0.853835
-0.86439
-0.873181
-0.88051
-0.865282
-0.856766
-0.846545
-0.83428
-0.819559
-0.78442
-0.783333
-0.818596
-0.833635
-0.846165
-0.856606
-0.865302
-0.865135
-0.856122
-0.845302
-0.832314
-0.816727
-0.781282
-0.780845
-0.81717
-0.83264
-0.84553
-0.856266
-0.865214
-0.865353
-0.865364
-0.865374
-0.865378
-0.865384
-0.856635
-0.85663
-0.856627
-0.856622
-0.856614
-0.846129
-0.84613
-0.846131
-0.84613
-0.846132
-0.833527
-0.833529
-0.833535
-0.833538
-0.833542
-0.818441
-0.818429
-0.818421
-0.818409
-0.818402
-0.780369
-0.780399
-0.780434
-0.780488
-0.78054
-0.716465
-0.716194
-0.715965
-0.715778
-0.715615
-0.630735
-0.631264
-0.631906
-0.632656
-0.633577
-0.634431
-0.54166
-0.537049
-0.534661
-0.532664
-0.531017
-0.529619
-0.420807
-0.423736
-0.427271
-0.431515
-0.43659
-0.44796
-0.370547
-0.352049
-0.344549
-0.338303
-0.333089
-0.328739
-0.270593
-0.275934
-0.282344
-0.290032
-0.299257
-0.325128
-0.317667
-0.288005
-0.278403
-0.270397
-0.263726
-0.258164
-0.220279
-0.226555
-0.234087
-0.243122
-0.253957
-0.292176
-0.251778
-0.218293
-0.207731
-0.198921
-0.191573
-0.185451
-0.184875
-0.190851
-0.198015
-0.206614
-0.216924
-0.249836
-0.212902
-0.182763
-0.172266
-0.163522
-0.156227
-0.150151
-0.150121
-0.156165
-0.163414
-0.172107
-0.182545
-0.212405
-0.212342
-0.182545
-0.172124
-0.163441
-0.156206
-0.150169
-0.116929
-0.123585
-0.13157
-0.141152
-0.152653
-0.189891
-0.189965
-0.152719
-0.141218
-0.131633
-0.123648
-0.116989
-0.117029
-0.123691
-0.131677
-0.141267
-0.152769
-0.190034
-0.190084
-0.152802
-0.141297
-0.131705
-0.123713
-0.117055
-0.117066
-0.123726
-0.131721
-0.141312
-0.152822
-0.190114
-0.19013
-0.152832
-0.141321
-0.131727
-0.123731
-0.117071
-0.0849229
-0.0912262
-0.0987943
-0.107873
-0.118766
-0.152153
-0.152162
-0.118771
-0.107876
-0.098794
-0.0912283
-0.0849233
-0.0560583
-0.0624676
-0.0701603
-0.0793876
-0.0904606
-0.120032
-0.101991
-0.06681
-0.0553037
-0.045711
-0.0377165
-0.0310598
-0.00476668
-0.0105917
-0.0175755
-0.0259584
-0.0360172
-0.0678587
-0.0395742
-0.0104746
-0.00027047
0.00823113
0.0153213
0.0212237
0.0404766
0.033319
0.0247299
0.014427
0.00206018
-0.0332037
-0.0253083
0.0119115
0.0262548
0.0382043
0.0481633
0.0564681
0.07358
0.0653667
0.0555134
0.0436862
0.0294934
-0.0103973
0.00801238
0.050985
0.0630202
0.0730519
0.081409
0.0883734
0.0973768
0.0916998
0.0848838
0.0767074
0.0668978
0.0329856
0.0475497
0.0727149
0.082691
0.0910053
0.0979341
0.103707
0.10936
0.102491
0.0942548
0.084379
0.0725402
0.0439228
0.0126023
0.033556
0.0406456
0.0466315
0.0517512
0.0561982
-0.0413218
-0.0440503
-0.0467805
-0.0495107
-0.0522403
-0.061192
-0.149599
-0.145064
-0.14438
-0.143697
-0.143015
-0.142331
-0.243624
-0.243701
-0.243777
-0.243854
-0.243933
-0.24596
-0.345351
-0.344584
-0.344584
-0.344584
-0.344584
-0.344584
-0.445021
-0.445021
-0.445021
-0.445021
-0.445021
-0.445272
-0.545208
-0.545184
-0.545184
-0.545184
-0.545184
-0.545185
-0.645618
-0.645618
-0.645618
-0.645618
-0.645618
-0.645443
-0.746611
-0.747112
-0.747112
-0.747112
-0.747112
-0.747112
-0.85078
-0.85078
-0.85078
-0.850779
-0.850779
-0.84964
-0.956288
-0.957463
-0.957486
-0.95751
-0.957534
-0.957559
-0.953883
-0.953883
-0.953883
-0.953883
-0.953884
-0.952384
-1.06157
-1.06193
-1.06199
-1.06206
-1.06212
-1.06219
-1.05445
-1.05445
-1.05445
-1.05445
-1.05445
-1.05326
-1.04647
-1.04763
-1.04763
-1.04763
-1.04763
-1.04763
-1.04272
-1.04272
-1.04272
-1.04272
-1.04272
-1.04213
-1.03935
-1.03961
-1.03961
-1.03961
-1.03961
-1.03961
-1.0378
-1.0378
-1.0378
-1.0378
-1.0378
-1.0377
-1.03679
-1.03682
-1.03682
-1.03682
-1.03682
-1.03682
-1.03632
-1.03632
-1.03632
-1.03632
-1.03632
-1.03632
-1.03611
-1.03609
-1.03609
-1.03609
-1.03609
-1.03608
-1.03598
-1.03599
-1.03599
-1.036
-1.036
-1.03603
-1.03607
-1.03605
-1.03604
-1.03603
-1.03603
-1.03603
-1.03626
-1.03626
-1.03626
-1.03627
-1.03626
-1.03625
-1.03658
-1.03664
-1.03665
-1.03665
-1.03664
-1.03664
-1.03731
-1.03731
-1.03732
-1.03731
-1.03731
-1.03717
-1.03813
-1.03838
-1.03838
-1.03838
-1.03838
-1.03838
-1.03999
-1.04
-1.03999
-1.03999
-1.03999
-1.03957
-1.04152
-1.04219
-1.04219
-1.04219
-1.04219
-1.04219
-1.04497
-1.04497
-1.04497
-1.04498
-1.04497
-1.04383
-1.04721
-1.0485
-1.0485
-1.0485
-1.04851
-1.0485
-1.13704
-1.13703
-1.13704
-1.13703
-1.13703
-1.13807
-1.13572
-1.13328
-1.13217
-1.13125
-1.13049
-1.12985
-1.12955
-1.12954
-1.12955
-1.12954
-1.12955
-1.13015
-1.13015
-1.13016
-1.13015
-1.13017
-1.13091
-1.13089
-1.13089
-1.13088
-1.13087
-1.13174
-1.13175
-1.13176
-1.13178
-1.1318
-1.13287
-1.13285
-1.13282
-1.1328
-1.13279
-1.13491
-1.13491
-1.13492
-1.13494
-1.13496
-1.22009
-1.22007
-1.22006
-1.22006
-1.22004
-1.20664
-1.20665
-1.20668
-1.20669
-1.20673
-1.2023
-1.20228
-1.20227
-1.20225
-1.20224
-1.19857
-1.19858
-1.19859
-1.1986
-1.19861
-1.19554
-1.19553
-1.19553
-1.19553
-1.19552
-1.19297
-1.19298
-1.19297
-1.19298
-1.19298
-1.19326
-1.19585
-1.19896
-1.20269
-1.20716
-1.22249
-1.22521
-1.20704
-1.2027
-1.19909
-1.19608
-1.19357
-1.13042
-1.13107
-1.13185
-1.13279
-1.13391
-1.13683
-1.13739
-1.13416
-1.13307
-1.13217
-1.13142
-1.13079
-1.06634
-1.06491
-1.0632
-1.06115
-1.05868
-1.05286
-0.965323
-0.989175
-0.994784
-0.999452
-1.00334
-1.00659
-1.00704
-1.0039
-1.00012
-0.995595
-0.990162
-0.967139
-0.90749
-0.931555
-0.938836
-0.944903
-0.949957
-0.954164
-0.910591
-0.905141
-0.898603
-0.890754
-0.88134
-0.852498
-0.807837
-0.842677
-0.854929
-0.865138
-0.873645
-0.880735
-0.865391
-0.857045
-0.847026
-0.835004
-0.820576
-0.785367
-0.784278
-0.819626
-0.834361
-0.846638
-0.856868
-0.86539
-0.880727
-0.873292
-0.864377
-0.853672
-0.840826
-0.805543
-0.805023
-0.839324
-0.852602
-0.863662
-0.872878
-0.880557
-0.880316
-0.87212
-0.862283
-0.850475
-0.836303
-0.802518
-0.798768
-0.796104
-0.795945
-0.795808
-0.795703
-0.795608
-0.834187
-0.848993
-0.861331
-0.871615
-0.880181
-0.880179
-0.871619
-0.861341
-0.849008
-0.83421
-0.834235
-0.849023
-0.861351
-0.871619
-0.880173
-0.880166
-0.871619
-0.861359
-0.849044
-0.834267
-0.834302
-0.849068
-0.86137
-0.871622
-0.880159
-0.880206
-0.871705
-0.861499
-0.849251
-0.83455
-0.871368
-0.883653
-0.893896
-0.902423
-0.909531
-0.909204
-0.902069
-0.893514
-0.883237
-0.870911
-0.870856
-0.883202
-0.893494
-0.902065
-0.909206
-0.909205
-0.902055
-0.893469
-0.883176
-0.870816
-0.870777
-0.883151
-0.893455
-0.902049
-0.909205
-0.909207
-0.902042
-0.893447
-0.883131
-0.870751
-0.837146
-0.83727
-0.837414
-0.837583
-0.837792
-0.84083
-0.812875
-0.807868
-0.807285
-0.8068
-0.806392