/*--------------------------------*- C++ -*----------------------------------*\
| =========                 |                                                 |
| \\      /  F ield         | OpenFOAM: The Open Source CFD Toolbox           |
|  \\    /   O peration     | Version:  2212                                  |
|   \\  /    A nd           | Website:  www.openfoam.com                      |
|    \\/     M anipulation  |                                                 |
\*---------------------------------------------------------------------------*/
FoamFile
{
    version     2.0;
    format      ascii;
    arch        "LSB;label=32;scalar=64";
    class       volScalarField;
    location    "20";
    object      T;
}
// * * * * * * * * * * * * * * * * * * * * * * * * * * * * * * * * * * * * * //

dimensions      [0 0 0 1 0 0 0];

internalField   nonuniform List<scalar> 
248319
(
300
300
300
300
300
300
300
300
300
300
300
300
300
300
300
300
300
300
300
300
300
300
300
300
300
300
300
300
300
300
300
300
300
300
300
300
300
300
300
300
300
300
300
300
300
300
300
300
300
300
300
300
300
300
300
300
300
300
300
300
300
300
300
300
300
300
300
300
300
300
300
300
300
300
300
300
300
300
300
300
300
300
300
300
300
300
300
300
300
300
300
300
300
300
300
300
300
300
300
300
300
300
300
300
300
300
300
300
300
300
300
300
300
300
300
300
300
300
300
300
300
300
300
300
300
300
300
300
300
300
300
300
300
300
300
300
300
300
300
300
300
300
300
300
300
300
300
300
300
300
300
300
300
300
300
300
300
300
300
300
300
300
300
300
300
300
300
300
300
300
300
300
300
300
300
300
300
300
300
300
300
300
300
300
300
300
300
300
300
300
300
300
300
300
300
300
300
300
300
300
300
300
300
300
300
300
300
300
300
300
300
300
300
300
300
300
300
300
300
300
300
300
300
300
300
300
300
300
300
300
300
300
300
300
300
300
300
300
300
300
300
300
300
300
300
300
300
300
300
300
300
300
300
300
300
300
300
300
300
300
300
300
300
300
300
300
300
300
300
300
300
300
300
300
300
300
300
300
300
300
300
300
300
300
300
300
300
300
300
300
300
300
300
300
300
300
300
300
300
300
300
300
300
300
300
300
300
300
300
300
300
300
300
300
300
300
300
300
300
300
300
300
300
300
300
300
300
300
300
300
300
300
300
300
300
300
300
300
300
300
300
300
300
300
300
300
300
300
300
300
300
300
300
300
300
300
300
300
300
300
300
300
300
300
300
300
300
300
300
300
300
300
300
300
300
300
300
300
300
300
300
300
300
300
300
300
300
300
300
300
300
300
300
300
300
300
300
300
300
300
300
300
300
300
300
300
300
300
300
300
300
300
300
300
300
300
300
300
300
300
300
300
300
300
300
300
300
300
300
300
300
300
300
300
300
300
300
300
300
300
300
300
300
300
300
300
300
300
300
300
300
300
300
300
300
300
300
300
300
300
300
300
300
300
300
300
300
300
300
300
300
300
300
300
300
300
300
300
300
300
300
300
300
300
300
300
300
300
300
300
300
300
300
300
300
300
300
300
300
300
300
300
300
300
300
300
300
300
300
300
300
300
300
300
300
300
300
300
300
300
300
300
300
300
300
300
300
300
300
300
300
300
300
300
300
300
300
300
300
300
300
300
300
300
300
300
300
300
300
300
300
300
300
300
300
300
300
300
300
300
300
300
300
300
300
300
300
300
300
300
300
300
300
300
300
300
300
300
300
300
300
300
300.001
300
300
300
300
300
300
300
300
300
300
300
300
300
300
300
300
300
300
300
300
300
300
300
300
300
300
300
300
300
300
300
300
300
300
300
300
300
300
300
300
300
300
300
300
300
300
300
300
300
300
300
300
300
300
300
300
300
300
300
300
300
300
300
300
300
300
300
300
300
300
300
300
300
300
300
300
300
300
300
300
300
300
300
300
300
300
300
300
300
300
300
300
300
300
300
300
300
300
300
300
300
300
300
300
300
300
300
300
300
300
300
300
300
300
300
300
300
300
300
300
300
300
300
300
300
300
300
300
300
300
300
300
300
300
300
300
300
300
300
300
300
300
300
300
300
300
300
300
300
300
300
300
300
300
300
300
300
300
300
300
300
300
300
300
300
300
300
300
300
300
300
300
300
300
300
300
300
300
300
300
300
300
300
300
300
300
300
300
300
300
300
300
300
300
300
300
300
300
300
300
300
300
300
300
300.003
300.003
300.003
300.002
300.001
300
300.001
300.016
300.031
300.038
300.035
300.033
300.225
300.237
300.251
300.204
300.11
300.012
300.003
300.012
300.012
300.011
300.01
300.01
300.001
300.001
300.001
300.001
300.001
300
300
300
300
300
300
300
300
300
300
300
300
300
300
300
300
300
300
300
300
300
300
300
300
300
300
300
300
300
300
300
300
300
300
300
300
300
300
300
300
300
300
300
300
300
300
300
300
300
300
300
300
300
300
300
300
300
300
300
300
300
300
300
300
300
300
300
300
300
300
300
300
300
300
300
300
300
300
300
300
300
300
300
300
300
300
300
300
300
300
300
300
300
300
300
300
300
300
300
300
300
300
300
300
300
300
300
300
300
300
300
300
300
300
300
300
300
300
300
300
300
300
300
300
300
300
300
300
300
300
300
300
300
300
300
300
300
300
300
300
300
300
300
300
300
300
300
300
300
300
300
300
300
300
300
300
300
300
300
300
300
300
300
300
300
300
300
300
300
300
300
300
300
300
300
300
300
300
300
300
300
300
300
300
300
300
300
300
300
300
300
300
300
300
300
300
300
300
300
300
300
300
300
300
300
300
300
300
300
300
300
300
300
300
300
300
300
300
300.001
300.002
300.002
300.002
300.002
300.034
300.037
300.044
300.041
300.023
300.001
300.015
300.199
300.341
300.375
300.327
300.299
301.372
301.458
301.578
301.362
300.79
300.077
300.249
302.476
304.02
304.692
304.487
304.262
300.899
300.94
300.973
300.771
300.408
300.041
300.017
300.083
300.121
300.141
300.139
300.136
300.009
300.009
300.008
300.007
300.006
300.002
300
300
300
300
300
300
300
300
300
300
300
300
300
300
300
300
300
300
300
300
300
300
300
300
300
300
300
300
300
300
300
300
300
300
300
300
300
300
300
300
300
300
300
300
300
300
300
300
300
300
300
300
300
300
300
300
300
300
300
300
300
300
300
300
300
300
300
300
300
300
300
300
300
300
300
300
300
300
300
300
300
300
300
300
300
300
300
300
300
300
300
300
300
300
300
300
300
300
300
300
300
300
300
300
300
300
300
300
300
300
300
300
300
300
300
300
300
300
300
300
300
300
300
300
300
300
300
300
300
300
300
300
300
300
300
300
300
300
300
300
300
300
300
300
300
300
300
300
300
300
300
300
300
300
300
300
300
300
300
300
300
300
300
300
300
300
300
300
300
300
300
300
300
300
300
300
300
300
300
300
300
300
300
300
300
300
300
300
300
300
300
300
300
300
300
300
300
300
300
300
300
300
300
300
300
300
300
300
300
300
300
300
300
300
300
300
300
300
300
300
300
300
300
300
300
300
300
300
300
300
300
300
300
300
300
300
300
300
300
300
300
300.006
300.01
300.01
300.008
300.007
300.128
300.138
300.154
300.132
300.07
300.005
300.039
300.402
300.778
300.975
300.925
300.867
303.29
303.381
303.231
302.334
301.155
300.155
300.406
302.613
305.373
308.044
309.302
309.362
320.857
319.64
315.022
309.611
304.681
300.704
300.611
306.159
309.207
311.143
311.646
311.46
303.012
303.108
303.044
302.131
301.047
300.09
300.048
300.26
300.441
300.627
300.709
300.71
300.036
300.036
300.03
300.024
300.017
300.005
300
300
300
300
300
300
300
300
300
300
300
300
300
300
300
300
300
300
300
300
300
300
300
300
300
300
300
300
300
300
300
300
300
300
300
300
300
300
300
300
300
300
300
300
300
300
300
300
300
300
300
300
300
300
300
300
300
300
300
300
300
300
300
300
300
300
300
300
300
300
300
300
300
300
300
300
300
300
300
300
300
300
300
300
300
300
300
300
300
300
300
300
300
300
300
300
300
300
300
300
300
300
300
300
300
300
300
300
300
300
300
300
300
300
300
300
300
300
300
300
300
300
300
300
300
300
300
300
300
300
300
300
300
300
300
300
300
300
300
300
300
300
300
300
300
300
300
300
300
300
300
300
300
300
300
300
300
300
300
300
300
300
300
300
300
300
300
300
300
300
300
300
300
300
300
300
300
300
300
300
300
300
300
300
300
300
300
300
300
300
300
300
300
300
300
300
300
300
300
300
300
300
300
300
300
300
300
300
300
300
300
300
300
300
300
300
300
300
300
300
300
300
300
300
300
300
300
300
300
300
300
300
300
300
300
300
300
300
300
300
300
300
300
300
300
300
300
300
300
300
300
300
300
300
300
300
300
300
300
300
300
300
300
300
300.001
300.014
300.027
300.032
300.029
300.027
300.395
300.41
300.404
300.289
300.132
300.01
300.055
300.529
301.181
301.855
302.095
302.07
306.14
305.879
304.434
302.404
301.038
300.175
300.361
301.427
303.302
307.201
311.491
312.823
322.246
318.369
309.493
303.369
301.358
300.554
300.414
301.397
305.155
314.759
328.502
334.998
351.202
362.592
383.027
421.37
473.053
470.329
411.67
369.176
348.407
339.152
320.804
328.928
350.494
399.053
466.26
462.347
389.446
336.699
315.743
308.965
303.341
308.707
328.767
382.611
459.464
457.548
375.84
323.546
305.372
301.243
300.208
302.161
314.807
360.898
449.145
448.631
360.25
314.489
302.069
300.197
300.024
300.025
300.111
301.3
310.899
352.719
444.232
455.663
371.354
321.451
304.313
300.725
303.2
309.099
328.962
380.055
459.882
462.812
387.973
338.441
317.168
309.228
320.837
330.285
352.167
398.385
466.101
470.009
410.84
369.835
348.917
338.788
351.963
363.142
382.965
419.884
472.788
471.929
417.336
380.436
361.228
350.579
337.335
346.852
367
407.825
468.896
464.67
394.504
348.914
328.242
319.625
308.138
315.172
334.893
383.23
460.978
457.436
374.155
325.007
307.291
302.547
300.468
302.799
317.347
364.254
452.376
438.209
343.803
307.452
300.724
300.064
300.03
300.331
301.037
304.453
313.887
328.894
337.15
329.066
325.914
317.055
308.814
303.023
300.478
300.519
306.126
310.371
314.932
317.699
318.074
305.708
305.865
305.583
303.99
302.094
300.296
300.068
300.229
300.322
300.415
300.487
300.496
299.996
300
300.002
300.003
300.003
300.002
300
300
300
300
300
300
300
300
300
300
300
300
300
300
300
300
300
300
300
300
300
300
300
300
300
300
300
300
300
300
300
300
300
300
300
300
300
300
300
300
300
300
300
300
300
300
300
300
300
300
300
300
300
300
300
300
300
300
300
300
300
300
300
300
300
300
300
300
300
300
300
300
300
300
300
300
300
300
300
300
300
300
300
300
300
300
300
300
300
300
300
300
300
300
300
300
300
300
300
300
300
300
300
300
300
300
300
300
300
300
300
300
300
300
300
300
300
300
300
300
300
300
300
300
300
300
300
300
300
300
300
300
300
300
300
300
300
300
300
300
300
300
300
300
300
300
300
300
300
300
300
300
300
300
300
300
300
300
300
300
300
300
300
300
300
300
300
300
300
300
300
300
300
300
300
300
300
300
300
300
300
300
300
300
300
300
300
300
300
300
300
300
300
300
300
300
300
300
300
300
300
300
300
300
300
300
300
300
300
300
300
300
300
300
300
300
300
300
300
300
300
300
300
300
300
300
300
300
300
300
300
300
300
300
300
300
300
300
300
300
300
300
300
300
300
300
300
300
300
300
300
300
300
300
300
300
300
300
300
300
300
300
300
300
300
300
300
300
300
300
300
300
300
300
300
300
300
300
300
300
300
300
300
300
300
300
300
300
300
300
300
300
300
300
300.025
300.028
300.035
300.033
300.018
300.001
300.013
300.179
300.405
300.559
300.543
300.508
302.962
302.997
302.643
301.577
300.632
300.061
300.167
301.086
303.064
306.378
308.604
308.923
319.27
317.444
310.814
304.305
301.376
300.296
300.441
301.961
307.154
326.385
378.192
458.58
461.452
463.7
466.723
470.505
473.086
421.814
413.104
401.081
391.64
385.261
332.736
340.938
354.337
372.066
384.393
364.086
351.127
332.274
319.014
311.551
304.78
310.872
323.053
341.021
352.387
335.749
329.664
315.878
305.797
301.68
302.567
307.367
318.434
332.785
338.584
355.982
345.476
327.456
314.676
307.951
317.336
325.061
338.515
356.911
368.635
389.654
378.787
362.055
349.108
341.263
392.425
397.933
406.829
418.073
425.886
474.554
472.036
468.4
465.622
463.768
461.37
386.483
335.263
312.593
304.528
300.974
300.091
301.172
305.843
323.966
373.479
455.841
449.346
361.4
315.051
302.221
300.217
300.017
300.019
300.005
300.189
301.988
313.353
355.826
444.171
447.005
359.493
314.896
302.306
300.23
300.008
300.004
300.116
301.421
310.96
350.913
441.056
432.706
340.327
306.969
300.713
300.048
300.004
300.003
300.07
300.954
308.331
343.667
434.798
437.94
345.135
308.193
300.85
300.07
300.026
300.28
300.426
302.434
315.269
362.483
451.701
456.363
459.533
462.996
467.162
470.061
412.663
402.596
389.233
378.527
370.704
321.602
330.306
343.558
361.367
374.918
356.239
342.431
324.519
312.543
305.813
301.99
306.802
317.165
333.907
346.127
332.379
325.175
311.974
303.766
300.888
302.185
305.875
313.527
321.52
324.089
313.674
313.461
311.321
307.226
303.627
300.353
300.243
301.202
301.906
302.488
302.719
302.666
300.007
300.023
300.027
300.027
300.023
300.01
300
300
300
300
300
299.999
300
300
300
300
300
300
300
300
300
300
300
300
300
300
300
300
300
300
300
300
300
300
300
300
300
300
300
300
300
300
300
300
300
300
300
300
300
300
300
300
300
300
300
300
300
300
300
300
300
300
300
300
300
300
300
300
300
300
300
300
300
300
300
300
300
300
300
300
300
300
300
300
300
300
300
300
300
300
300
300
300
300
300
300
300
300
300
300
300
300
300
300
300
300
300
300
300
300
300
300
300
300
300
300
300
300
300
300
300
300
300
300
300
300
300
300
300
300
300
300
300
300
300
300
300
300
300
300
300
300
300
300
300
300
300
300
300
300
300
300
300
300
300
300
300
300
300
300
300
300
300
300
300
300
300
300
300
300
300
300
300
300
300
300
300
300
300
300
300
300
300
300
300
300
300
300
300
300
300
300
300
300
300
300
300
300
300
300
300
300
300
300
300
300
300
300
300
300
300
300
300
300
300
300
300
300
300
300
300
300
300
300
300
300
300
300
300
300
300
300
300
300
300
300
300
300
300
300
300
300
300
300
300
300
300
300
300
300
300
300
300
300
300
300
300
300
300
300
300
300
300
300
300
300
300
300
300
300
300
300
300
300
300
300
300
300
300
300
300
300
300
300
300
300
300
300
300
300
300
300
300
300
300
300
300
300
300
300
300
300
300
300
300
300
300
300
300
300
300
300
300
300
300
300
300
300
300
300
300
300
300
300
300
300
300
300
300
300
300.001
300.015
300.022
300.022
300.018
300.016
300.379
300.414
300.486
300.411
300.198
300.014
300.066
300.814
301.949
302.957
303.041
302.862
310.376
310.232
308.113
304.292
301.588
300.185
300.339
301.994
306.249
314.138
321.413
323.161
325.26
323.929
317.069
308.615
303.352
300.651
302.02
308.37
319.6
345.597
395.908
464.614
466.316
467.748
470.243
473.559
475.621
429.639
422.654
412.367
404.305
399.87
349.934
356.618
368.683
384.241
393.739
372.434
362.077
344.369
331.083
323.691
311.89
318.913
332.128
349.895
359.263
340.938
336.253
322.062
309.631
303.958
307.751
314.832
328.876
341.293
344.982
366.381
358.682
341.822
328.315
321.126
336.279
342.791
355.516
371.783
380.223
401.657
394.019
380.286
369.497
364.274
410.559
413.536
420.497
429.385
434.93
477.6
475.644
472.757
470.589
469.582
468.723
408.462
361.542
332.9
317.454
305.233
303.063
312.86
327.172
355.234
403.042
466.662
461.085
386.635
336.029
312.513
303.918
300.524
300.349
303.051
310.619
332.791
382.904
459.622
452.854
367.999
320.57
304.433
300.722
300.035
300.006
300.162
301.776
312.428
353.839
442.768
440.982
352.607
312.376
301.858
300.184
300.01
300.009
300.25
302.343
314.456
357.156
444.25
451.156
366.242
318.431
303.242
300.377
300.015
300.008
300.201
302.079
313.887
357.34
445.499
436.617
345.329
308.907
301.074
300.087
300.006
300.006
300.138
301.522
311.067
350.371
440.226
451.221
364.703
317.386
302.973
300.342
300.007
300.004
300.172
301.874
313.06
355.802
445.153
445.608
354.748
311.842
301.481
300.125
300.024
300.26
301.087
304.464
313.395
326.345
332.478
347.807
358.129
376.376
413.162
470.087
467.256
403.465
363.31
344.949
336.533
319.157
326.547
345.415
390.516
463.267
460.185
380.508
332.141
314.002
307.951
302.556
306.959
324.005
374.12
457.786
454.569
368.012
318.477
303.265
300.546
301.755
306.717
325.653
377.008
458.117
460.395
382.479
331.932
311.708
305.136
312.215
319.998
340.445
388.214
462.33
465.211
397.749
354.196
334.212
325.81
344.524
353.579
372.182
410.167
469.095
472.088
419.043
384.423
366.237
355.398
336.564
331.075
317.312
306.493
301.814
300.367
300.357
301.821
305.903
314.268
322.372
324.303
313.055
312.599
309.577
304.852
301.823
300.352
300.367
301.499
302.265
302.816
302.89
302.753
300.017
300.037
300.05
300.057
300.058
300.046
300
300
300
300
300
300
300
300
300
300
300
300
300
300
300
300
300
300
300
300
300
300
300
300
300
300
300
300
300
300
300
300
300
300
300
300
300
300
300
300
300
300
300
300
300
300
300
300
300
300
300
300
300
300
300
300
300
300
300
300
300
300
300
300
300
300
300
300
300
300
300
300
300
300
300
300
300
300
300
300
300
300
300
300
300
300
300
300
300
300
300
300
300
300
300
300
300
300
300
300
300
300
300
300
300
300
300
300
300.001
300
300
300
300
300
300
300
300
300
300
300.001
300
300
300
300
300
300
300
300
300
300
300
300
300
300
300
300
300
300
300
300
300
300
300
300
300
300
300
300
300
300
300
300
300
300
300
300
300
300
300
300
300
300
300
300
300
300
300
300
300
300
300
300
300
300
300
300
300
300
300
300
300
300
300
300
300
300
300
300
300
300
300
300
300
300
300
300
300
300
300
300
300
300
300
300
300
300
300
300
300
300
300
300
300
300
300
300
300
300
300
300
300
300
300
300
300
300
300
300
300
300
300
300
300
300
300
300
300
300
300
300
300
300
300
300
300
300
300
300
300
300
300
300
300
300
300
300
300
300
300
300
300
300
300
300
300
300
300
300
300
300
300
300
300
300
300
300
300
300
300
300
300
300
300
300
300
300
300
300
300
300
300
300
300
300
300
300
300
300
300
300
300
300
300
300
300
300
300
300
300
300
300
300
300
300
300
300
300
300
300
300
300
300
300
300
300
300
300
300
300
300
300
300
300
300
300
300
300
300
300
300
300
300
300
300
300
300
300
300
300
300
300
300
300
300
300
300
300
300
300
300
300.001
300.01
300.015
300.014
300.011
300.01
300.249
300.277
300.334
300.305
300.17
300.014
300.082
301.016
302.034
302.523
302.275
302.138
310.202
310.53
309.206
305.63
302.499
300.323
300.666
303.665
306.553
308.815
308.858
308.392
327.602
326.936
321.148
312.521
306.272
302.044
303.043
309.661
315.997
322.65
325.917
325.996
347.607
345.612
336.059
323.04
314.84
311.053
313.14
318.797
328.375
341.666
350.321
351.916
364.408
361.029
349.947
334.524
324.179
349.813
356.45
368.954
382.98
389.159
403.303
396.53
383.948
373.895
369.124
397.328
399.492
406.68
416.292
422.033
448.914
445.004
439.441
435.656
434.739
477.603
477.685
478.713
480.484
481.976
482.828
481.679
480.566
480.145
480.506
443.745
442.954
444.912
448.463
451.167
426.382
422.254
415.859
411.608
410.673
383.789
385.983
393.062
402.373
407.697
394.54
388.988
378.088
368.869
363.784
335.02
344.821
358.41
369.257
372.581
357.941
357.041
351.423
341.993
332.668
321.993
329.853
361.771
383.352
411.282
444.548
480.83
480.646
443.148
408.144
378.424
354.985
320.248
315.68
342.074
364.5
395.801
435.018
477.95
472.804
419.943
376.128
345.603
326.455
307.787
306.173
325.796
344.79
375.493
419.882
472.996
466.122
401.003
352.798
325.242
311.625
302.494
302.361
311.382
324.663
351.767
399.866
465.767
459.03
381.59
331.964
310.316
302.981
300.35
300.026
300.613
304.053
319.574
366.304
451.895
451.039
364.935
318.839
303.791
300.547
300.031
300.019
300.207
301.925
312.342
351.806
439.817
443.908
357.388
314.907
302.541
300.297
300.019
300.029
300.47
303.683
319.708
368.019
451.886
447.842
361.244
315.956
302.633
300.291
300.016
300.016
300.148
301.501
310.856
349.929
440.079
443.402
354.95
313.225
302.055
300.222
300.015
300.016
300.495
303.753
319.956
369.127
453.625
460.813
383.103
328.395
306.368
301.025
300.023
300.013
300.805
305.474
326.029
379.883
459.604
453.093
368.356
319.319
303.432
300.402
300.007
300.024
300.256
302.597
316.921
365.555
452.511
456.177
371.801
320.093
303.356
300.355
300.024
300.431
302.447
308.673
321.736
333.715
337.018
356.509
367.218
385.308
420.65
472.156
469.85
412.004
373.809
355.84
347.649
328.745
336.078
355.733
399.931
466.113
463.369
390.525
341.413
320.838
313.72
305.704
312.18
333.101
385.464
461.524
460.223
381.582
328.245
307.684
302.178
304.27
311.795
334.786
387.463
461.824
463.279
391.658
340.941
317.855
309.28
318.394
327.194
349.211
396.323
464.775
467.468
405.06
362.82
342.523
334.088
351.967
361.138
379.49
416.072
470.925
473.02
423.284
388.858
370.533
359.345
339.142
336.417
325.388
311.401
303.824
300.906
300.617
303.41
308.243
314.683
317.903
317.975
313.103
312.814
310.153
305.613
302.379
300.496
300.457
301.934
303.759
305.796
306.6
306.486
300.936
301.026
301.079
300.979
300.768
300.289
300.002
300.002
300.003
300.004
300.006
300.01
300
300
300
300
300
300.001
300
300
300
300
300
300
300
300
300
300
300
300
300
300
300
300
300
300
300
300
300
300
300
300
300
300
300
300
300
300
300
300
300
300
300
300
300
300
300
300
300
300
300
300
300
300
300
300
300
300
300
300
300
300
300
300
300
300
300
300
300
300
300
300
300
300
300
300
300
300
300
300
300
300
300
300
300
300
300
300
300
300
300
300
300
300
300
300
300
300
300
300
300
300
300
300
300
300
300
300
300
300
300
300
300
300
300
300
300
300
300
300
300
300
300
300
300
300
300
300.001
300.001
300
300
300
300
300
300
300
300
300
300
300.001
300.001
300
300
300
300
300
300
300
300
300
300
300
300
300
300
300
300
300
300
300
300
300
300
300
300
300
300
300
300
300
300
300
300
300
300
300
300
300
300
300
300
300
300
300
300
300
300
300
300
300
300
300
300
300
300
300
300
300
300
300
300
300
300
300
300
300
300
300
300
300
300
300
300
300
300
300
300
300
300
300
300
300
300
300
300
300
300
300
300
300
300
300
300
300
300
300
300
300
300
300
300
300
300
300
300
300
300
300
300
300
300
300
300
300
300
300
300
300
300
300
300
300
300
300
300
300
300
300
300
300
300
300
300
300
300
300
300
300
300
300
300
300
300
300
300
300
300
300
300
300
300
300
300
300
300
300
300
300
300
300
300
300
300
300
300
300
300
300
300
300
300
300
300
300
300
300
300
300
300
300
300
300
300
300
300
300
300
300
300
300
300
300
300
300
300
300
300
300
300
300
300
300
300
300
300
300
300
300
300
300
300
300
300
300
300
300
300
300
300
300
300
300
300
300
300
300
300
300
300
300
300
300
300
300
300
300
300
300
300
300
300
300
300
300
300
300
300.006
300.007
300.009
300.01
300.007
300.001
300.012
300.133
300.219
300.222
300.176
300.154
301.456
301.565
301.814
301.637
300.979
300.096
300.097
300.841
301.229
301.232
301.009
300.911
306.079
306.358
306.633
305.634
303.765
300.815
300.828
303.293
304.411
304.717
304.303
304.051
319.055
319.309
318.278
314.451
309.698
303.157
310.227
319.048
327.61
336.68
340.823
341.045
329.101
329.752
329.011
323.652
316.845
307.963
316.03
329.167
336.476
341.79
342.76
341.829
343.271
343.152
339.425
331.628
324.094
316.445
321.899
329.544
337.255
347.194
355.143
357.049
370.715
365.025
353.286
343.079
336.45
358.731
364.162
373.206
384.49
391.383
405.547
399.119
389.316
381.627
376.549
403.761
406.513
412.01
419.229
424.087
450.446
447.442
443.612
441.05
439.93
479.609
479.663
480.249
481.431
482.607
482.297
448.592
420.959
401.059
386.747
377.767
392.608
414.437
444.602
480.783
479.306
439.314
404.552
379.425
363.156
351.739
368.749
396.416
435.034
478.124
477.546
432.22
390.432
360.814
343.599
337.855
354.353
384.692
428.762
476.51
473.255
418.145
368.854
338.638
325.229
313.521
320.267
342.522
359.091
389.525
432.421
477.677
476.48
428.315
382.83
351.664
337.076
315.437
314.934
353.025
376.608
406.118
441.916
480.302
478.339
435.137
394.559
362.069
339.221
310.819
310.309
339.362
362.009
394.401
435.053
478.332
473.079
419.782
375.48
345.085
326.3
306.148
305.744
325.143
343.506
373.613
418.157
472.476
465.15
398.231
350.049
323.37
310.558
302.132
300.308
302.683
309.618
330.69
380.047
458.34
457.989
379.273
330.053
309.256
302.532
300.306
300.054
300.578
303.829
318.824
364.654
450.743
439.362
351.964
312.793
302.137
300.266
300.041
300.038
300.385
302.902
315.799
358.381
444.165
452.555
369.923
321.321
304.338
300.633
300.059
300.033
300.428
303.31
317.989
364.308
449.352
442.316
353.696
312.897
302.065
300.251
300.035
300.032
300.35
302.698
315.282
358.386
445.276
454.839
372.086
322.225
304.625
300.705
300.032
300.043
301.316
307.313
330.26
384.739
461.286
454.271
375.679
325.625
305.891
300.975
300.04
300.019
300.792
305.294
324.563
375.009
454.288
454.099
373.858
323.434
304.806
300.668
300.012
300.006
300.411
303.551
319.731
368.543
452.01
452.594
369.708
320.462
303.75
300.44
300.009
300.026
300.481
304.151
323.206
376.456
458.051
461.353
387.798
336.442
312.509
304.059
300.656
302.692
306.531
315.625
330.24
340.48
342.876
364.11
376.409
395.763
429.046
475.218
473.126
422.889
387.761
368.332
357.725
340.781
351.113
372.756
412.93
469.787
467.298
404.803
359.951
336.088
324.914
315.419
327.051
352.524
400.599
465.87
464.489
396.785
346.874
320.9
309.653
317.367
332.128
360.21
407.08
467.955
468.902
409.042
363.147
336.146
322.085
331.321
344.182
369.193
412.308
469.894
472.181
419.529
380.616
358.066
346.565
362.964
374.428
394.513
428.489
475.07
477.104
434.02
401.755
381.872
368.898
346.613
344.295
334.766
320.846
309.948
305.678
302.493
307.68
314.923
322.301
325.26
325.065
321.955
321.993
318.712
311.289
305.102
301.183
300.767
303.47
306.664
309.354
309.589
309.134
307.718
307.958
307.415
305.072
302.641
300.607
300.557
301.896
303.216
304.454
304.793
304.617
301.245
301.397
301.493
301.296
300.953
300.381
300.16
300.253
300.249
300.226
300.188
300.159
300.005
300.003
300.002
300.002
300.002
300.002
300
300
300
300
300
300
300
300
300
300
300
300
300
300
300
300
300
300
300
300
300
300
300
300
300
300
300
300
300
300
300
300
300
300
300
300
300
300
300
300
300
300
300
300
300
300
300
300
300
300
300
300
300
300
300
300
300
300
300
300
300
300
300
300
300
300
300
300
300
300
300
300
300
300
300
300
300
300
300
300
300
300
300
300
300
300
300
300
300
300
300
300
300
300
300
300
300
300
300
300
300
300
300
300
300
300
300
300
300.001
300
300
300
300
300
300
300
300
300
300
300.001
300
300
300
300
300
300
300
300
300
300
300
300.001
300.001
300
300
300
300
300
300
300
300
300
300
300.002
300.001
300
300
300
300
300
300
300
300
300
300
300.001
300
300
300
300
300
300
300
300
300
300
300
300
300
300
300
300
300
300
300
300
300
300
300
300
300
300
300
300
300
300
300
300
300
300
300
300
300
300
300
300
300
300
300
300
300
300
300
300
300
300
300
300
300
300
300
300
300
300
300
300
300
300
300
300
300
300
300
300
300
300
300
300
300
300
300
300
300
300
300
300
300
300
300
300
300
300
300
300
300
300
300
300
300
300
300
300
300
300
300
300
300
300
300
300
300
300
300
300
300
300
300
300
300
300
300
300
300
300
300
300
300
300
300
300
300
300
300
300
300
300
300
300
300
300
300
300
300
300
300
300
300
300
300
300
300
300
300
300
300
300
300
300
300
300
300
300
300
300
300
300
300
300
300
300
300
300
300
300
300
300
300
300
300
300
300
300
300
300
300
300
300
300
300
300
300
300
300
300
300
300
300
300
300
300
300
300
300
300
300
300
300
300
300
300
300
300
300
300
300
300
300
300
300
300
300
300
300
300
300
300
300
300
300
300
300
300
300
300
300
300
300
300
300
300
300
300
300
300
300
300
300
300
300
300
300
300
300
300
300
300
300
300
300
300
300
300
300
300
300.003
300.004
300.005
300.006
300.005
300.001
300.01
300.102
300.153
300.142
300.107
300.095
300.056
300.064
300.089
300.104
300.077
300.008
300.093
300.667
300.866
300.796
300.624
300.563
300.336
300.376
300.499
300.585
300.5
300.086
300.753
302.625
303.225
303.193
302.783
302.601
312.6
313.163
313.497
311.722
308.52
302.855
302.479
307.03
308.945
309.419
308.525
307.945
319.235
320.398
321.617
319.215
314.394
306.278
312.243
324.818
329.996
331.828
330.043
328.638
329.533
330.458
330.01
325.265
319.064
312.473
308.993
312.675
318.582
324.986
327.437
327.127
339.635
338.497
332.158
322.768
315.671
311.202
314.862
319.684
327.046
338.19
348.969
352.411
364.704
357.05
343.054
332.114
325.912
322.466
330.396
357.204
377.65
406.447
441.902
480.063
479.845
479.723
480.221
481.365
482.505
450.141
447.311
443.692
441.546
441.221
406.037
407.835
412.563
419.434
424.008
405.668
399.563
389.885
382.456
378.286
359.095
364.44
373.596
385.045
391.6
370.685
365.976
354.322
342.575
334.391
329.806
338.065
347.599
354.566
356.039
347.19
346.975
342.942
334.593
326.296
316.132
319.866
326.848
336.809
349.508
358.444
360.155
355.565
353.8
345.187
332.889
322.935
317.658
319.045
343.819
363.785
392.77
431.512
476.568
476.546
476.84
478.046
479.998
481.638
447.587
443.281
437.178
432.876
431.46
393.279
396.39
404.024
414.141
420.282
401.466
394.46
381.532
371.05
365.62
347.232
354.327
366.862
381.018
387.416
362.386
359.179
348.014
334.028
323.455
332.583
342.059
356.1
367.811
371.535
394.12
407.587
425.893
451.051
482.715
481.559
447.887
420.774
401.039
387.353
375.52
390.663
413.099
443.464
480.057
479.566
440.954
407.601
382.247
364.758
359.216
378.602
405.853
440.596
479.5
480.072
441.452
406.013
377.225
356.01
327.912
320.52
350.335
373.074
403.756
440.624
479.79
479.44
439.045
400.66
369.573
347.997
319.227
314.471
345.678
367.17
398.471
437.367
478.932
469.438
409.011
359.556
332.566
321.135
311.091
310.633
319.3
329.528
354.848
404.129
467.429
474.9
424.045
378.368
347.613
333.943
313.766
313.992
352.174
375.499
404.771
441.057
480.134
479.828
439.853
403.131
373.956
350.847
313.312
309.586
337.783
360.294
392.823
434.048
478.053
477.78
433.061
391.413
358.931
336.645
309.274
305.51
324.21
342.221
372.079
416.796
471.952
464.69
397.119
348.935
322.584
310.106
302.061
302.245
310.291
322.706
348.898
396.879
464.495
458.048
379.5
330.311
309.457
302.678
300.389
300.11
300.744
304.239
319.627
365.494
451.01
439.721
353.24
313.835
302.55
300.381
300.086
300.076
300.548
303.535
317.427
360.605
445.179
453.952
373.164
323.884
305.403
300.918
300.111
300.063
300.669
304.362
320.852
368.345
451.25
445.021
358.572
315.778
302.971
300.44
300.068
300.064
300.577
303.696
318.144
362.777
447.529
456.338
375.887
325.312
305.919
301.055
300.063
300.084
301.769
308.687
332.894
387.145
461.92
454.529
377.053
327.334
306.827
301.279
300.083
300.18
301.175
306.047
324.549
371.783
451.068
451.316
370.956
323.095
305.158
300.842
300.068
300.029
300.7
304.776
322.659
371.318
452.064
452.949
371.849
322.453
304.56
300.627
300.015
300.505
303.584
311.573
334.42
384.361
459.217
458.992
383.649
333.767
311.273
303.496
300.508
302.038
309.756
322.47
349.558
398.221
464.802
465.754
400.839
352.245
324.562
311.169
302.631
307.088
323.458
341.329
371.115
415.625
471.006
472.187
418.976
375.896
346.783
328.93
333.511