/*--------------------------------*- C++ -*----------------------------------*\
| =========                 |                                                 |
| \\      /  F ield         | OpenFOAM: The Open Source CFD Toolbox           |
|  \\    /   O peration     | Version:  2212                                  |
|   \\  /    A nd           | Website:  www.openfoam.com                      |
|    \\/     M anipulation  |                                                 |
\*---------------------------------------------------------------------------*/
FoamFile
{
    version     2.0;
    format      ascii;
    arch        "LSB;label=32;scalar=64";
    class       volScalarField;
    location    "392";
    object      p;
}
// * * * * * * * * * * * * * * * * * * * * * * * * * * * * * * * * * * * * * //

dimensions      [0 2 -2 0 0 0 0];

internalField   nonuniform List<scalar> 
248319
(
0
0.0192836
0.0402736
0.0499154
0.0579551
0.0646578
0.0702515
0.109365
0.103299
0.0960257
0.0873032
0.0768435
0.0510529
0.0498412
0.0761441
0.0872778
0.0965742
0.104332
0.110803
0.0812668
0.0763969
0.0706085
0.0636805
0.0553543
0.0331016
0.0137266
0.0280135
0.0342262
0.0395259
0.0440904
0.048064
0.0626258
0.0577879
0.0519902
0.0450514
0.0367428
0.0196839
-0.0539484
-0.0471918
-0.0434471
-0.0403234
-0.0377027
-0.0355267
-0.0212264
-0.0246941
-0.0288527
-0.0338306
-0.0397963
-0.050759
-0.0555459
-0.0402182
-0.0334756
-0.0278604
-0.02318
-0.0192633
0.063466
0.0574265
0.050178
0.041487
0.0310655
0.000541846
0.0309093
0.0593129
0.0692855
0.0776
0.0845279
0.0903071
0.100135
0.0944877
0.0877126
0.0795854
0.0698415
0.0359
0.0499502
0.0749737
0.084737
0.0928743
0.0996583
0.105313
0.109528
0.103005
0.0951835
0.0858069
0.0745673
0.0473137
0.0190799
0.0397524
0.0463796
0.051906
0.0565889
0.0606377
-0.0356248
-0.0383555
-0.041086
-0.0438147
-0.0465454
-0.0535706
-0.0514958
-0.0438458
-0.0414568
-0.0392161
-0.0370777
-0.035013
-0.140376
-0.140786
-0.141177
-0.141546
-0.141886
-0.145263
-0.144829
-0.141952
-0.140972
-0.140158
-0.139477
-0.138904
-0.132514
-0.133792
-0.135337
-0.137176
-0.139385
-0.144444
-0.14591
-0.13938
-0.136706
-0.134478
-0.132608
-0.131067
-0.133987
-0.135625
-0.137604
-0.139964
-0.142808
-0.150194
-0.069578
-0.0525746
-0.0457536
-0.0400677
-0.0353344
-0.031372
0.0473167
0.0406963
0.0327556
0.0232247
0.0117979
-0.0194638
-0.00916451
0.0315365
0.0452731
0.0567266
0.0662774
0.0742399
0.0901723
0.083367
0.075206
0.0654144
0.053671
0.0104095
0.0096485
0.0523082
0.0641462
0.0740131
0.0822364
0.0890925
0.0978745
0.0922933
0.0855963
0.0775594
0.0679172
0.0344747
0.0489402
0.0735183
0.0833168
0.0914809
0.0982841
0.103951
0.109474
0.102779
0.0947517
0.0851287
0.0735919
0.0456328
0.0147851
0.0354118
0.0421975
0.0479106
0.0527923
0.0570387
-0.0392367
-0.041953
-0.0446712
-0.0473897
-0.050111
-0.0586956
-0.147628
-0.143319
-0.142599
-0.141881
-0.141163
-0.140444
-0.139439
-0.140142
-0.140842
-0.141542
-0.142241
-0.14619
-0.244008
-0.242359
-0.242285
-0.242211
-0.242138
-0.242064
-0.242964
-0.242952
-0.242919
-0.242858
-0.242761
-0.243761
-0.243304
-0.2424
-0.242275
-0.242168
-0.242084
-0.242016
-0.238684
-0.239006
-0.239387
-0.239852
-0.240404
-0.242617
-0.242874
-0.239821
-0.2391
-0.238498
-0.237998
-0.237572
-0.238129
-0.238597
-0.239161
-0.23983
-0.24063
-0.244237
-0.245663
-0.241503
-0.240526
-0.239717
-0.239033
-0.238474
-0.136213
-0.138057
-0.140275
-0.142931
-0.14612
-0.154318
-0.0773852
-0.0596677
-0.052513
-0.0465472
-0.0415818
-0.0374354
0.0342269
0.0274495
0.0193155
0.00955113
-0.00215109
-0.032838
-0.0252848
0.0126318
0.0266633
0.0383626
0.0481162
0.0562438
0.0568174
0.0485498
0.0386266
0.0267228
0.012442
-0.0247384
-0.00914007
0.0306792
0.0447007
0.0563871
0.0661295
0.0742505
0.0739198
0.065718
0.0558769
0.0440711
0.0299017
-0.0097707
0.00871425
0.0514023
0.063402
0.0733994
0.0817318
0.0886766
0.0975676
0.0919082
0.085119
0.0769704
0.0671939
0.0335475
0.0480671
0.07298
0.0829084
0.0911816
0.0980768
0.10382
0.109421
0.102614
0.0944515
0.0846659
0.072933
0.0445281
0.0132877
0.0339958
0.0409688
0.0468556
0.0518958
0.0562826
-0.0407208
-0.0434442
-0.0461671
-0.0488901
-0.0516149
-0.0604021
-0.148692
-0.144135
-0.143458
-0.142782
-0.142108
-0.141432
-0.242725
-0.2428
-0.242877
-0.242954
-0.243031
-0.245122
-0.244498
-0.242474
-0.2424
-0.242328
-0.242256
-0.242182
-0.343436
-0.343434
-0.343432
-0.343432
-0.343429
-0.344211
-0.343973
-0.343406
-0.343427
-0.343447
-0.343468
-0.343488
-0.344218
-0.344165
-0.344101
-0.344024
-0.343929
-0.34402
-0.343701
-0.343609
-0.343663
-0.343714
-0.343754
-0.343788
-0.341971
-0.342018
-0.34207
-0.342139
-0.34222
-0.343048
-0.343004
-0.341747
-0.341618
-0.341505
-0.341417
-0.34135
-0.341489
-0.341571
-0.341681
-0.341815
-0.341967
-0.343493
-0.343964
-0.342145
-0.341957
-0.341792
-0.341661
-0.341548
-0.340745
-0.34094
-0.341156
-0.341427
-0.341747
-0.343999
-0.246042
-0.241072
-0.239693
-0.238548
-0.237585
-0.236799
-0.134492
-0.13681
-0.139598
-0.142938
-0.146941
-0.156204
-0.0818143
-0.06329
-0.0553231
-0.048679
-0.0431567
-0.0385343
0.0239936
0.0175144
0.00973701
0.000405008
-0.0107806
-0.0404909
-0.0341706
0.00128231
0.0135978
0.023867
0.0324275
0.0395611
0.0405637
0.0333922
0.0247869
0.0144628
0.00207818
-0.0330964
-0.0329186
0.00218632
0.0145582
0.0248698
0.0334649
0.040626
0.0567154
0.0484119
0.0384475
0.0264948
0.012152
-0.0248863
-0.0250613
0.0120339
0.0263773
0.0383292
0.0482898
0.0565891
0.073721
0.065508
0.0556519
0.0438225
0.0296305
-0.0101245
0.0082631
0.0511051
0.0631417
0.0731669
0.0815256
0.0884887
0.0974406
0.0917618
0.0849503
0.0767745
0.0669604
0.0331365
0.0476798
0.072775
0.0827453
0.0910515
0.0979744
0.103741
0.109374
0.102522
0.094305
0.0844525
0.0726411
0.0440564
0.0127306
0.0335549
0.0405966
0.0465427
0.0516349
0.0560633
-0.0412066
-0.0439258
-0.0466441
-0.0493632
-0.0520841
-0.0610127
-0.149303
-0.144738
-0.144058
-0.143377
-0.142697
-0.142017
-0.24319
-0.243266
-0.243343
-0.243421
-0.243497
-0.245577
-0.344874
-0.344048
-0.344047
-0.344047
-0.344047
-0.344046
-0.343723
-0.343724
-0.343724
-0.343725
-0.343725
-0.344562
-0.444347
-0.444019
-0.444018
-0.444018
-0.444018
-0.444017
-0.44385
-0.443849
-0.443849
-0.443848
-0.443847
-0.444135
-0.444038
-0.44388
-0.443893
-0.443906
-0.44392
-0.443933
-0.444483
-0.444453
-0.444414
-0.444367
-0.444313
-0.444167
-0.444034
-0.444172
-0.444231
-0.444284
-0.444329
-0.444363
-0.44343
-0.44343
-0.443424
-0.443418
-0.443413
-0.443671
-0.443751
-0.443305
-0.443301
-0.443286
-0.443283
-0.443267
-0.443623
-0.443645
-0.443641
-0.443662
-0.443679
-0.444191
-0.444751
-0.444209
-0.444174
-0.444158
-0.444147
-0.444125
-0.444404
-0.444429
-0.444465
-0.444501
-0.444557
-0.445182
-0.44538
-0.444556
-0.444439
-0.444336
-0.444261
-0.444197
-0.338864
-0.339231
-0.339652
-0.340166
-0.340781
-0.343675
-0.245827
-0.239636
-0.237455
-0.235635
-0.234108
-0.232849
-0.124285
-0.127538
-0.131452
-0.136147
-0.141785
-0.154681
-0.0824825
-0.0606043
-0.0513289
-0.0435936
-0.0371621
-0.0317761
0.0161983
0.00999441
0.00255184
-0.00637775
-0.0170883
-0.044581
-0.0406995
-0.0115055
-0.00119735
0.00739911
0.0145611
0.0205347
0.0212622
0.0153421
0.00824104
-0.000281797
-0.0105039
-0.0395449
-0.0393258
-0.0103405
-0.000140803
0.00836126
0.0154451
0.0213515
0.021321
0.0154174
0.00834182
-0.000153304
-0.0103511
-0.0393657
-0.0329785
0.00217117
0.0145329
0.0248356
0.0334184
0.0405709
0.0405165
0.0333647
0.0247847
0.0144839
0.00212298
-0.0330799
-0.0251986
0.0119559
0.0262981
0.0382495
0.0482076
0.0565048
0.0736187
0.0654031
0.0555444
0.0437119
0.0295169
-0.0103108
0.00806534
0.0509965
0.063038
0.0730701
0.0814338
0.0884016
0.0973841
0.0917027
0.0848851
0.0767041
0.0668856
0.0329842
0.0475451
0.0727105
0.0826909
0.0910059
0.0979362
0.103709
0.10936
0.102492
0.0942559
0.0843798
0.0725412
0.0439096
0.0125722
0.0335027
0.0405845
0.0465646
0.0516827
0.0561284
-0.0413647
-0.0440934
-0.0468213
-0.049549
-0.0522783
-0.0612338
-0.149567
-0.14501
-0.144327
-0.143646
-0.142963
-0.142279
-0.243465
-0.243542
-0.243619
-0.243696
-0.243773
-0.245833
-0.345094
-0.34429
-0.34429
-0.344289
-0.344289
-0.344289
-0.44446
-0.44446
-0.444461
-0.444461
-0.444461
-0.444764
-0.444573
-0.444252
-0.444251
-0.444251
-0.44425
-0.44425
-0.543827
-0.543827
-0.543827
-0.543828
-0.543828
-0.543964
-0.543774
-0.543632
-0.543631
-0.54363
-0.54363
-0.54363
-0.543504
-0.543505
-0.543506
-0.543505
-0.543504
-0.543629
-0.543588
-0.543538
-0.543544
-0.54355
-0.543556
-0.543562
-0.543937
-0.543921
-0.543902
-0.543878
-0.54385
-0.543718
-0.543738
-0.543881
-0.54392
-0.543946
-0.543966
-0.543998
-0.543659
-0.543643
-0.543653
-0.54364
-0.543632
-0.543677
-0.543994
-0.543903
-0.543897
-0.543913
-0.543893
-0.543902
-0.544637
-0.544629
-0.544648
-0.544638
-0.544643
-0.544679
-0.545669
-0.545747
-0.545747
-0.545749
-0.545738
-0.545742
-0.547063
-0.547068
-0.547073
-0.547074
-0.547081
-0.546863
-0.54812
-0.548456
-0.548429
-0.548423
-0.548403
-0.548392
-0.549293
-0.549317
-0.549358
-0.549392
-0.549442
-0.54908
-0.445326
-0.444125
-0.44385
-0.443625
-0.44344
-0.443282
-0.336053
-0.336711
-0.337482
-0.338417
-0.339543
-0.343304
-0.246649
-0.23895
-0.235634
-0.232867
-0.230553
-0.228631
-0.121734
-0.125774
-0.130639
-0.136477
-0.14348
-0.1597
-0.10957
-0.0814926
-0.0711755
-0.0625696
-0.0553974
-0.0494147
-0.0144865
-0.0204087
-0.0275022
-0.0360192
-0.0462324
-0.073628
-0.0681631
-0.0358129
-0.0257617
-0.0173838
-0.0103952
-0.00456651
-0.00459688
-0.0104154
-0.0173894
-0.0257567
-0.0358017
-0.0676286
-0.0675499
-0.0358236
-0.0257782
-0.0174077
-0.0104321
-0.0046174
-0.0046706
-0.0104835
-0.0174612
-0.0258284
-0.0358722
-0.0676245
-0.0677205
-0.0359338
-0.0258842
-0.0175114
-0.0105338
-0.004718
0.0212781
0.0153747
0.00829675
-0.000200615
-0.0104008
-0.0394497
-0.0395172
-0.0104451
-0.000243723
0.00825789
0.0153408
0.021244
0.0404819
0.0333276
0.0247435
0.0144419
0.00207911
-0.0331534
-0.0252784
0.0119105
0.0262512
0.0382019
0.0481607
0.0564598
0.0735681
0.0653526
0.0554941
0.0436638
0.0294699
-0.0103956
0.0079923
0.0509573
0.0629978
0.0730315
0.0813955
0.088363
0.097363
0.0916803
0.0848616
0.0766809
0.0668666
0.0329432
0.0475133
0.0726954
0.0826753
0.0909912
0.0979217
0.103697
0.109351
0.102481
0.0942411
0.0843611
0.0725199
0.0438775
0.0125386
0.0334939
0.0405799
0.0465621
0.0516832
0.0561302
-0.0413956
-0.044127
-0.0468558
-0.0495844
-0.0523156
-0.0612783
-0.149652
-0.145103
-0.14442
-0.143737
-0.143056
-0.142372
-0.243595
-0.243672
-0.243749
-0.243826
-0.243904
-0.245947
-0.345224
-0.344434
-0.344434
-0.344433
-0.344433
-0.344433
-0.444626
-0.444626
-0.444626
-0.444627
-0.444627
-0.444916
-0.544379
-0.544274
-0.544274
-0.544273
-0.544273
-0.544273
-0.544047
-0.544047
-0.544047
-0.544047
-0.544047
-0.544167
-0.643282
-0.643243
-0.643243
-0.643243
-0.643242
-0.643242
-0.642946
-0.642947
-0.642947
-0.642947
-0.642947
-0.643006
-0.642799
-0.642729
-0.642728
-0.642728
-0.642728
-0.642727
-0.642596
-0.642597
-0.642597
-0.642597
-0.642599
-0.642665
-0.642635
-0.642603
-0.642605
-0.642605
-0.642607
-0.64261
-0.642841
-0.642834
-0.642828
-0.642819
-0.642808
-0.642734
-0.64285
-0.642948
-0.642957
-0.64297
-0.64299
-0.64299
-0.643034
-0.643042
-0.643031
-0.643033
-0.643031
-0.643004
-0.643525
-0.643577
-0.643583
-0.643579
-0.643579
-0.643579
-0.644646
-0.644651
-0.644642
-0.644653
-0.644644
-0.644469
-0.645898
-0.646282
-0.646285
-0.646273
-0.646282
-0.646277
-0.64848
-0.648482
-0.648488
-0.648491
-0.648489
-0.647841
-0.650207
-0.65115
-0.651152
-0.651147
-0.651139
-0.651142
-0.653646
-0.653647
-0.653655
-0.65366
-0.653665
-0.652513
-0.653234
-0.654548
-0.654522
-0.654514
-0.654491
-0.654488
-0.548954
-0.549026
-0.549106
-0.549199
-0.549313
-0.549085
-0.445058
-0.443218
-0.442648
-0.442171
-0.441774
-0.441451
-0.332406
-0.333559
-0.33491
-0.336548
-0.338515
-0.343577
-0.247297
-0.235374
-0.230334
-0.22613
-0.222611
-0.219705
-0.125688
-0.130346
-0.135931
-0.142633
-0.15067
-0.170137
-0.126769
-0.0995819
-0.0890756
-0.0803158
-0.0730135
-0.0669275
-0.0553551
-0.0619228
-0.0698119
-0.0792698
-0.0906182
-0.121102
-0.102529
-0.0664775
-0.0549353
-0.0453103
-0.0372888
-0.0305989
-0.0307566
-0.0374092
-0.0453919
-0.0549681
-0.0664578
-0.101794
-0.101686
-0.066566
-0.0550759
-0.0454977
-0.0375144
-0.0308627
-0.0309444
-0.037597
-0.0455816
-0.0551598
-0.0666539
-0.101746
-0.10184
-0.06672
-0.0552208
-0.0456422
-0.0376547
-0.0309997
-0.0310356
-0.0376905
-0.0456803
-0.0552639
-0.0667682
-0.101913
-0.0677916
-0.0359811
-0.0259265
-0.0175487
-0.0105688
-0.00474987
-0.0047674
-0.0105897
-0.0175718
-0.0259549
-0.0360095
-0.067837
-0.0395591
-0.0104722
-0.000268263
0.00823142
0.0153192
0.0212217
0.0404615
0.0333052
0.0247197
0.0144162
0.00205065
-0.0331988
-0.0253207
0.0118847
0.0262271
0.0381786
0.0481392
0.0564364
0.0735473
0.0653323
0.0554739
0.0436437
0.0294503
-0.0104291
0.00797243
0.0509458
0.0629844
0.0730177
0.0813815
0.0883468
0.0973552
0.0916724
0.0848563
0.0766772
0.0668621
0.0329399
0.0475144
0.072692
0.0826728
0.0909893
0.097918
0.103693
0.109348
0.102477
0.0942374
0.0843571
0.0725154
0.043886
0.0125597
0.0335265
0.0406189
0.0466047
0.0517271
0.056176
-0.0413834
-0.044113
-0.0468414
-0.0495723
-0.0523043
-0.0612669
-0.149664
-0.145122
-0.144439
-0.143755
-0.143071
-0.142389
-0.243643
-0.243719
-0.243797
-0.243876
-0.243952
-0.245987
-0.345296
-0.344516
-0.344515
-0.344515
-0.344514
-0.344514
-0.444761
-0.444761
-0.444761
-0.444762
-0.444762
-0.44504
-0.544606
-0.544517
-0.544516
-0.544516
-0.544515
-0.544515
-0.644098
-0.644099
-0.644099
-0.6441
-0.6441
-0.644075
-0.643638
-0.643628
-0.643627
-0.643627
-0.643626
-0.643626
-0.742961
-0.742961
-0.742962
-0.742962
-0.742963
-0.74289
-0.742254
-0.742275
-0.742275
-0.742274
-0.742274
-0.742274
-0.741795
-0.741795
-0.741795
-0.741795
-0.741796
-0.741812
-0.741526
-0.74149
-0.741489
-0.741489
-0.741488
-0.741488
-0.741312
-0.741313
-0.741314
-0.741314
-0.741316
-0.741359
-0.741307
-0.741273
-0.741272
-0.74127
-0.741271
-0.741271
-0.741374
-0.741374
-0.741374
-0.741375
-0.741375
-0.741361
-0.741513
-0.741557
-0.741558
-0.741561
-0.741564
-0.741565
-0.74184
-0.74184
-0.741839
-0.741838
-0.741839
-0.741791
-0.742424
-0.742545
-0.742541
-0.742537
-0.742546
-0.742541
-0.743792
-0.743786
-0.743786
-0.743783
-0.743793
-0.743518
-0.745209
-0.745721
-0.745714
-0.745725
-0.745716
-0.745722
-0.748468
-0.748467
-0.748471
-0.748463
-0.748468
-0.747622
-0.750742
-0.752016
-0.752011
-0.752011
-0.752012
-0.752012
-0.755822
-0.755836
-0.75582
-0.755833
-0.755832
-0.754155
-0.757029
-0.75832
-0.758321
-0.758307
-0.758321
-0.758306
-0.752366
-0.752371
-0.75237
-0.752386
-0.752387
-0.75093
-0.650139
-0.651451
-0.651394
-0.65136
-0.651317
-0.651299
-0.54654
-0.546715
-0.546893
-0.547111
-0.547385
-0.547578
-0.444608
-0.441806
-0.440731
-0.439834
-0.439082
-0.43847
-0.328993
-0.330801
-0.332958
-0.335558
-0.338669
-0.345487
-0.255372
-0.239727
-0.233216
-0.227786
-0.223256
-0.219487
-0.140959
-0.14684
-0.153883
-0.162344
-0.17248
-0.201285
-0.16102
-0.133937
-0.123843
-0.115423
-0.108402
-0.102543
-0.0845248
-0.0909538
-0.0986627
-0.10791
-0.118996
-0.153276
-0.152035
-0.118428
-0.107531
-0.0984451
-0.0908737
-0.0845614
-0.0557037
-0.0621197
-0.0698266
-0.0790693
-0.0901588
-0.119905
-0.119728
-0.0902017
-0.0791402
-0.0699209
-0.0622384
-0.0558372
-0.0559378
-0.0623375
-0.0700158
-0.0792324
-0.0902891
-0.119794
-0.119887
-0.0903629
-0.079303
-0.070084
-0.0624009
-0.0560015
-0.0560385
-0.0624401
-0.0701259
-0.0793498
-0.0904149
-0.119957
-0.12
-0.0904432
-0.0793769
-0.0701488
-0.0624627
-0.0560559
-0.0310553
-0.03771
-0.0457023
-0.0552885
-0.0667975
-0.10196
-0.101988
-0.0668114
-0.0553021
-0.0457159
-0.0377237
-0.0310635
-0.00478193
-0.0106
-0.0175851
-0.0259683
-0.0360252
-0.0678653
-0.0395839
-0.0104873
-0.000281354
0.00822059
0.015306
0.0212118
0.0404503
0.0332952
0.0247064
0.0144021
0.00203525
-0.0332255
-0.025344
0.0118718
0.0262153
0.038166
0.0481272
0.0564264
0.07354
0.0653247
0.0554647
0.0436385
0.0294441
-0.0104423
0.00796907
0.0509444
0.0629828
0.0730135
0.0813755
0.0883426
0.0973517
0.0916708
0.0848566
0.0766786
0.0668637
0.0329451
0.0475184
0.0726929
0.0826739
0.090989
0.0979183
0.103692
0.109343
0.102472
0.094234
0.0843552
0.0725136
0.0438889
0.0125699
0.0335323
0.0406239
0.046611
0.0517306
0.0561773
-0.0413632
-0.0440925
-0.0468219
-0.049553
-0.0522863
-0.0612463
-0.149654
-0.145115
-0.144432
-0.143747
-0.143063
-0.142381
-0.243659
-0.243735
-0.243814
-0.243893
-0.24397
-0.246
-0.345345
-0.344569
-0.344568
-0.344568
-0.344567
-0.344567
-0.444878
-0.444879
-0.444879
-0.444879
-0.44488
-0.44515
-0.544843
-0.544777
-0.544776
-0.544776
-0.544775
-0.544775
-0.644645
-0.644645
-0.644645
-0.644646
-0.644647
-0.644571
-0.744731
-0.744994
-0.744994
-0.744993
-0.744993
-0.744993
-0.743882
-0.743882
-0.743882
-0.743883
-0.743884
-0.74373
-0.843903
-0.844255
-0.844254
-0.844253
-0.844252
-0.844252
-0.842529
-0.842529
-0.84253
-0.84253
-0.842531
-0.842347
-0.841234
-0.841315
-0.841314
-0.841314
-0.841314
-0.841313
-0.840527
-0.840528
-0.840528
-0.840528
-0.840529
-0.840509
-0.840076
-0.840064
-0.840063
-0.840063
-0.840062
-0.840062
-0.839805
-0.839805
-0.839806
-0.839807
-0.839808
-0.839837
-0.839743
-0.839704
-0.839702
-0.839701
-0.839698
-0.839697
-0.839706
-0.83971
-0.839715
-0.83972
-0.839726
-0.839745
-0.839896
-0.839902
-0.839901
-0.839895
-0.839892
-0.83989
-0.840248
-0.840252
-0.840243
-0.840248
-0.84025
-0.840205
-0.84084
-0.84097
-0.840963
-0.840966
-0.840971
-0.840966
-0.84219
-0.84219
-0.842199
-0.842187
-0.842194
-0.841912
-0.843591
-0.84411
-0.844109
-0.844109
-0.84411
-0.844105
-0.846909
-0.846924
-0.84691
-0.846917
-0.846922
-0.846046
-0.849291
-0.850684
-0.850672
-0.850673
-0.850681
-0.850674
-0.855
-0.85499
-0.854996
-0.854988
-0.855
-0.85286
-0.856058
-0.858692
-0.858687
-0.858686
-0.858685
-0.858688
-0.85927
-0.859274
-0.859271
-0.859275
-0.859273
-0.858047
-0.901242
-0.901651
-0.901639
-0.90163
-0.901619
-0.901612
-0.925109
-0.933789
-0.941026
-0.947061
-0.952089
-0.952087
-0.947059
-0.94103
-0.933798
-0.925122
-0.925132
-0.933807
-0.941041
-0.947064
-0.95208
-0.952079
-0.947057
-0.941038
-0.933811
-0.925149
-0.925165
-0.933822
-0.941045
-0.947051
-0.952068
-0.952226
-0.947062
-0.940871
-0.933439
-0.924523
-0.925748
-0.934451
-0.941709
-0.94775
-0.952788
-0.909935
-0.903501
-0.895781
-0.886515
-0.875394
-0.848808
-0.805075
-0.838033
-0.851597
-0.862902
-0.872322
-0.88017
-0.880006
-0.871993
-0.862371
-0.850829
-0.836976
-0.837522
-0.851189
-0.862577
-0.872068
-0.879975
-0.879992
-0.872082
-0.862587
-0.851193
-0.837519
-0.837521
-0.851201
-0.862595
-0.872091
-0.880006
-0.880024
-0.872104
-0.862602
-0.8512
-0.837521
-0.837518
-0.8512
-0.862605
-0.872109
-0.880028
-0.865298
-0.856808
-0.846621
-0.834395
-0.819723
-0.819725
-0.834392
-0.846615
-0.856802
-0.86529
-0.865281
-0.856794
-0.84661
-0.834389
-0.819725
-0.819721
-0.834383
-0.846602
-0.856781
-0.865266
-0.865248
-0.856769
-0.846591
-0.834376
-0.81972
-0.818236
-0.833325
-0.8459
-0.856375
-0.865102
-0.865062
-0.85623
-0.845629
-0.832906
-0.817638
-0.782412
-0.782345
-0.782417
-0.782402
-0.782383
-0.782365
-0.782361
-0.718839
-0.718897
-0.718943
-0.719012
-0.719089
-0.717997
-0.636461
-0.636861
-0.636485
-0.636186
-0.635917
-0.635709
-0.536324
-0.537036
-0.537866
-0.53889
-0.540098
-0.542437
-0.446171
-0.439745
-0.436586
-0.433961
-0.431755
-0.42993
-0.321629
-0.325335
-0.329768
-0.335095
-0.341479
-0.356633
-0.30217
-0.274003
-0.264401
-0.256402
-0.249727
-0.244166
-0.204069
-0.20965
-0.216361
-0.224405
-0.234044
-0.26025
-0.222139
-0.195124
-0.185139
-0.176809
-0.169869
-0.164081
-0.150277
-0.156539
-0.164047
-0.173053
-0.183858
-0.214796
-0.191922
-0.153464
-0.141742
-0.131969
-0.123822
-0.117031
-0.116792
-0.123479
-0.131495
-0.141117
-0.15266
-0.190297
-0.189928
-0.152611
-0.141101
-0.131508
-0.12352
-0.116853
-0.0846857
-0.0909839
-0.098545
-0.107618
-0.1185
-0.151858
-0.151908
-0.118587
-0.107709
-0.0986429
-0.0910869
-0.0847954
-0.0848641
-0.0911588
-0.0987172
-0.107786
-0.118672
-0.152006
-0.152081
-0.118727
-0.107837
-0.0987648
-0.0912039
-0.0849071
-0.0849269
-0.0912264
-0.098793
-0.107864
-0.11876
-0.152127
-0.152155
-0.118777
-0.107881
-0.0988075
-0.0912389
-0.0849358
-0.0560647
-0.0624742
-0.0701626
-0.0793908
-0.0904591
-0.120025
-0.120038
-0.090467
-0.0793951
-0.0701682
-0.0624775
-0.056068
-0.0310703
-0.0377304
-0.0457226
-0.0553134
-0.0668206
-0.102003
-0.0678779
-0.0360349
-0.0259756
-0.017595
-0.0106074
-0.00478934
0.0212041
0.0152984
0.00821285
-0.000291185
-0.0104957
-0.039597
-0.0332395
0.00202695
0.014394
0.0246983
0.0332891
0.0404449
0.0564247
0.0481215
0.0381605
0.0262115
0.0118679
-0.0253538
-0.010445
0.0294457
0.0436401
0.0554656
0.0653215
0.0735368
0.088339
0.0813744
0.073015
0.0629843
0.0509465
0.00797175
0.0329503
0.0668671
0.0766783
0.0848557
0.0916707
0.0973487
0.10369
0.0979161
0.090986
0.082673
0.0726957
0.0475234
0.0438956
0.0725157
0.084355
0.0942312
0.102469
0.109339
0.0561866
0.0517403
0.0466199
0.0406333
0.0335424
0.0125823
-0.06123
-0.052272
-0.0495396
-0.04681
-0.0440782
-0.0413478
-0.142371
-0.143054
-0.143737
-0.144421
-0.145105
-0.149643
-0.246005
-0.243975
-0.243898
-0.24382
-0.243742
-0.243665
-0.344606
-0.344606
-0.344607
-0.344607
-0.344607
-0.345379
-0.445249
-0.444988
-0.444987
-0.444987
-0.444987
-0.444987
-0.545029
-0.545029
-0.54503
-0.54503
-0.54503
-0.545074
-0.645071
-0.6452
-0.6452
-0.6452
-0.645199
-0.645199
-0.746155
-0.746155
-0.746155
-0.746156
-0.746156
-0.745768
-0.847892
-0.848763
-0.848763
-0.848762
-0.848762
-0.848762
-0.846425
-0.846425
-0.846425
-0.846426
-0.846427
-0.845836
-0.948384
-0.94956
-0.949558
-0.949558
-0.949557
-0.949557
-0.945531
-0.945531
-0.945532
-0.945533
-0.945535
-0.944856
-0.942146
-0.942497
-0.942495
-0.942494
-0.942493
-0.942493
-0.940471
-0.940472
-0.940472
-0.940473
-0.940474
-0.940313
-0.939181
-0.939238
-0.939238
-0.939238
-0.939237
-0.939237
-0.938541
-0.938541
-0.938541
-0.938542
-0.938542
-0.938535
-0.938193
-0.938174
-0.938173
-0.938172
-0.938171
-0.938171
-0.937992
-0.937997
-0.937999
-0.938
-0.938004
-0.938039
-0.937987
-0.937954
-0.937947
-0.937941
-0.937935
-0.93793
-0.938071
-0.938074
-0.938079
-0.938084
-0.938095
-0.938104
-0.938374
-0.938406
-0.938399
-0.938399
-0.938399
-0.938399
-0.939004
-0.939004
-0.939004
-0.939008
-0.939005
-0.938903
-0.939786
-0.94001
-0.940018
-0.940007
-0.940016
-0.940011
-0.941603
-0.941598
-0.941598
-0.941602
-0.941603
-0.941183
-0.943259
-0.943978
-0.943976
-0.943977
-0.943964
-0.94398
-0.947236
-0.947233
-0.947242
-0.947245
-0.947238
-0.946033
-0.949117
-0.951262
-0.951265
-0.951268
-0.951257
-0.95126
-0.955712
-0.955698
-0.955712
-0.955708
-0.955707
-0.951661
-0.967755
-0.985671
-0.99181
-0.996929
-1.00119
-1.00475
-1.00418
-1.00418
-1.00418
-1.00418
-1.00418
-1.00067
-1.00068
-1.00068
-1.00068
-1.00069
-0.996492
-0.996487
-0.996478
-0.996472
-0.996462
-0.991408
-0.991421
-0.991431
-0.991451
-0.991469
-0.985432
-0.985401
-0.985378
-0.985365
-0.985344
-0.969959
-0.969961
-0.969981
-0.969994
-0.97001
-1.0532
-1.05317
-1.05316
-1.05315
-1.05313
-1.05714
-1.05716
-1.05718
-1.0572
-1.05724
-1.05969
-1.05967
-1.05965
-1.05963
-1.05962
-1.06169
-1.06169
-1.06171
-1.06172
-1.06173
-1.06344
-1.06343
-1.06342
-1.06341
-1.06341
-1.06484
-1.06485
-1.06484
-1.06486
-1.06486
-1.06532
-1.06386
-1.06209
-1.05998
-1.05744
-1.05287
-1.05262
-1.05803
-1.06061
-1.06277
-1.06456
-1.06605
-1.00586
-1.00238
-0.998197
-0.993181
-0.98716
-0.965455
-0.902053
-0.90497
-0.929547
-0.937306
-0.943776
-0.949163
-0.953646
-0.91042
-0.904652
-0.897729
-0.889424
-0.879458
-0.851466
-0.807356
-0.841172
-0.853835
-0.86439
-0.87318
-0.880509
-0.865278
-0.856762
-0.846542
-0.834278
-0.819558
-0.784423
-0.78334
-0.818597
-0.833634
-0.846163
-0.856603
-0.865299
-0.865129
-0.856116
-0.845297
-0.83231
-0.816726
-0.781285
-0.780845
-0.817165
-0.832631
-0.84552
-0.856255
-0.865202
-0.865346
-0.86536
-0.865371
-0.865376
-0.865383
-0.856633
-0.856629
-0.856625
-0.856618
-0.856608
-0.846123
-0.846127
-0.846129
-0.84613
-0.846131
-0.833527
-0.833529
-0.833534
-0.833536
-0.833537
-0.818438
-0.818428
-0.818421
-0.81841
-0.818403
-0.780371
-0.780401
-0.780437
-0.78049
-0.780541
-0.716465
-0.716195
-0.715965
-0.715779
-0.715616
-0.630736
-0.631265
-0.631907
-0.632657
-0.633577
-0.634432
-0.54166
-0.53705
-0.534662
-0.532666
-0.531019
-0.529621
-0.420812
-0.42374
-0.427276
-0.431519
-0.436594
-0.447963
-0.370553
-0.352058
-0.344559
-0.338314
-0.3331
-0.32875
-0.270603
-0.275945
-0.282355
-0.290043
-0.299267
-0.325135
-0.317673
-0.288011
-0.278409
-0.270403
-0.263731
-0.25817
-0.220287
-0.226563
-0.234094
-0.243129
-0.253965
-0.292182
-0.251783
-0.218299
-0.207736
-0.198926
-0.191578
-0.185455
-0.184884
-0.19086
-0.198024
-0.206622
-0.216933
-0.249844
-0.212908
-0.182769
-0.172273
-0.163529
-0.156234
-0.150157
-0.15013
-0.156174
-0.163423
-0.172116
-0.182553
-0.212414
-0.212354
-0.182557
-0.172136
-0.163453
-0.156218
-0.150181
-0.116943
-0.123598
-0.131583
-0.141166
-0.152667
-0.189907
-0.189983
-0.152736
-0.141234
-0.13165
-0.123665
-0.117006
-0.117048
-0.12371
-0.131696
-0.141286
-0.152788
-0.190053
-0.190103
-0.152821
-0.141317
-0.131725
-0.123733
-0.117074
-0.117084
-0.123744
-0.13174
-0.141331
-0.152841
-0.190132
-0.190146
-0.152849
-0.141337
-0.131743
-0.123748
-0.117088
-0.0849395
-0.0912429
-0.098811
-0.10789
-0.118783
-0.152168
-0.152177
-0.118787
-0.107892
-0.0988099
-0.0912441
-0.084939
-0.0560669
-0.0624765
-0.0701694
-0.0793969
-0.0904709
-0.120045
-0.102013
-0.0668274
-0.05532
-0.045727
-0.0377322
-0.0310753
-0.00479153
-0.0106167
-0.0176007
-0.025984
-0.0360433
-0.067888
-0.0396056
-0.0105017
-0.000296515
0.00820539
0.0152957
0.0211982
0.0404429
0.0332851
0.0246956
0.0143918
0.00202321
-0.033246
-0.0253565
0.0118665
0.0262107
0.0381606
0.0481197
0.0564245
0.0735351
0.0653218
0.0554685
0.0436412
0.029448
-0.0104447
0.00797349
0.0509494
0.0629854
0.0730173
0.0813746
0.0883389
0.0973472
0.0916703
0.0848544
0.0766779
0.0668681
0.0329549
0.0475285
0.0726956
0.0826719
0.0909861
0.0979148
0.103688
0.109337
0.102467
0.094231
0.0843548
0.0725156
0.043899
0.0125869
0.0335416
0.0406324
0.0466189
0.0517388
0.0561859
-0.0413412
-0.0440702
-0.0468011
-0.049532
-0.0522631
-0.0612187
-0.149636
-0.145098
-0.144413
-0.143729
-0.143047
-0.142363
-0.243668
-0.243746
-0.243822
-0.2439
-0.243979
-0.246007
-0.345405
-0.344637
-0.344636
-0.344636
-0.344636
-0.344635
-0.445075
-0.445075
-0.445075
-0.445075
-0.445075
-0.445328
-0.545262
-0.545237
-0.545237
-0.545237
-0.545236
-0.545236
-0.645665
-0.645665
-0.645665
-0.645666
-0.645666
-0.645492
-0.746655
-0.747154
-0.747154
-0.747154
-0.747153
-0.747153
-0.850818
-0.850818
-0.850819
-0.850819
-0.850819
-0.849681
-0.956348
-0.95752
-0.957542
-0.957565
-0.957588
-0.957613
-0.953947
-0.953948
-0.953948
-0.953949
-0.95395
-0.952453
-1.06169
-1.06204
-1.06211
-1.06217
-1.06224
-1.06231
-1.05457
-1.05457
-1.05457
-1.05457
-1.05457
-1.05338
-1.04658
-1.04774
-1.04773
-1.04773
-1.04773
-1.04773
-1.04282
-1.04282
-1.04282
-1.04282
-1.04282
-1.04225
-1.03947
-1.03973
-1.03973
-1.03973
-1.03973
-1.03973
-1.03794
-1.03794
-1.03794
-1.03794
-1.03794
-1.03784
-1.03694
-1.03697
-1.03697
-1.03697
-1.03697
-1.03697
-1.03647
-1.03647
-1.03647
-1.03647
-1.03647
-1.03648
-1.03626
-1.03623
-1.03623
-1.03623
-1.03623
-1.03622
-1.03611
-1.03611
-1.03611
-1.03612
-1.03613
-1.03616
-1.03622
-1.0362
-1.03619
-1.03618
-1.03618
-1.03618
-1.0364
-1.0364
-1.0364
-1.0364
-1.0364
-1.03639
-1.03673
-1.03679
-1.03679
-1.03679
-1.03679
-1.03679
-1.03744
-1.03744
-1.03745
-1.03744
-1.03744
-1.03731
-1.03823
-1.03848
-1.03848
-1.03847
-1.03848
-1.03847
-1.04004
-1.04005
-1.04004
-1.04004
-1.04005
-1.03964
-1.04158
-1.04224
-1.04223
-1.04223
-1.04223
-1.04223
-1.04504
-1.04504
-1.04504
-1.04504
-1.04504
-1.04391
-1.04732
-1.04861
-1.04861
-1.04861
-1.04862
-1.0486
-1.13719
-1.13718
-1.13719
-1.13719
-1.13719
-1.13823
-1.13593
-1.13351
-1.13242
-1.13151
-1.13076
-1.13013
-1.12982
-1.1298
-1.1298
-1.12978
-1.12979
-1.13039
-1.13039
-1.13041
-1.13041
-1.13043
-1.13116
-1.13114
-1.13113
-1.13111
-1.13111
-1.13197
-1.13198
-1.13199
-1.13201
-1.13203
-1.13309
-1.13307
-1.13304
-1.13302
-1.13301
-1.1351
-1.13511
-1.13512
-1.13514
-1.13515
-1.22035
-1.22033
-1.22032
-1.22031
-1.22029
-1.20692
-1.20694
-1.20696
-1.20698
-1.20701
-1.20261
-1.20258
-1.20256
-1.20255
-1.20254
-1.19888
-1.19889
-1.1989
-1.19891
-1.19893
-1.19587
-1.19586
-1.19585
-1.19584
-1.19584
-1.19329
-1.19329
-1.19329
-1.19331
-1.19332
-1.1936
-1.19619
-1.19929
-1.203
-1.20745
-1.22274
-1.22546
-1.20733
-1.20302
-1.19942
-1.19643
-1.19392
-1.1307
-1.13135
-1.13212
-1.13304
-1.13414
-1.13703
-1.13759
-1.1344
-1.13333
-1.13244
-1.1317
-1.13108
-1.06656
-1.06512
-1.0634
-1.06133
-1.05885
-1.05301
-0.965412
-0.989286
-0.994902
-0.999577
-1.00348
-1.00672
-1.00718
-1.00404
-1.00026
-0.995724
-0.990283
-0.967237
-0.907559
-0.931629
-0.938912
-0.944982
-0.950038
-0.954246
-0.910625
-0.905174
-0.898635
-0.890785
-0.881369
-0.852525
-0.807851
-0.842683
-0.854934
-0.865142
-0.873649
-0.880739
-0.865392
-0.857045
-0.847027
-0.835006
-0.820581
-0.785377
-0.784291
-0.819633
-0.834365
-0.846641
-0.85687
-0.865391
-0.880741
-0.873306
-0.864391
-0.853685
-0.840842
-0.805567
-0.805042
-0.839334
-0.852611
-0.863671
-0.872887
-0.880566
-0.880327
-0.872131
-0.862293
-0.850485
-0.836314
-0.802535
-0.798783
-0.79612
-0.795962
-0.795825
-0.79572
-0.795625
-0.834205
-0.849011
-0.861351
-0.871635
-0.880201
-0.880198
-0.871639
-0.861361
-0.849026
-0.834228
-0.834253
-0.849041
-0.86137
-0.871639
-0.880192
-0.880185
-0.871638
-0.861378
-0.849062
-0.834284
-0.834317
-0.849083
-0.861386
-0.871639
-0.880176
-0.880219
-0.871717
-0.861511
-0.849262
-0.834562
-0.871406
-0.883693
-0.89394
-0.90247
-0.90958
-0.909256
-0.90212
-0.893562
-0.88328
-0.87095
-0.870896
-0.883246
-0.893542
-0.902116
-0.909258
-0.909257
-0.902107
-0.893518
-0.883221
-0.870856
-0.870817
-0.883196
-0.893504
-0.9021
-0.909257
-0.909258
-0.902092
-0.893495
-0.883176
-0.870792
-0.837177
-0.837302
-0.837445
-0.837614
-0.837823
-0.840862
-0.812903
-0.807896
-0.807312