/*--------------------------------*- C++ -*----------------------------------*\
| =========                 |                                                 |
| \\      /  F ield         | OpenFOAM: The Open Source CFD Toolbox           |
|  \\    /   O peration     | Version:  2212                                  |
|   \\  /    A nd           | Website:  www.openfoam.com                      |
|    \\/     M anipulation  |                                                 |
\*---------------------------------------------------------------------------*/
FoamFile
{
    version     2.0;
    format      ascii;
    arch        "LSB;label=32;scalar=64";
    class       volScalarField;
    location    "392";
    object      T;
}
// * * * * * * * * * * * * * * * * * * * * * * * * * * * * * * * * * * * * * //

dimensions      [0 0 0 1 0 0 0];

internalField   nonuniform List<scalar> 
248319
(
313.158
313.097
312.584
312.291
311.997
311.8
311.733
311.661
311.741
311.981
312.301
312.633
313.14
312.973
312.299
312
311.858
311.792
311.802
312.225
312.261
312.36
312.479
312.61
312.813
312.771
312.607
312.541
312.516
312.489
312.474
312.145
312.115
312.123
312.147
312.244
312.876
313.328
312.913
312.576
312.262
312.083
312.042
312.209
312.293
312.513
312.796
313.068
313.447
313.565
313.317
313.058
312.764
312.52
312.432
312.315
312.38
312.577
312.839
313.1
313.501
313.282
312.795
312.547
312.297
312.093
312.01
311.871
311.935
312.125
312.373
312.633
313.44
313.22
312.431
312.098
311.789
311.57
311.498
311.68
311.668
311.73
311.874
312.241
313.057
312.923
312.723
312.57
312.408
312.256
312.18
312.663
312.786
312.927
313.067
313.212
313.364
313.27
313.109
312.984
312.87
312.746
312.648
312.704
312.823
312.965
313.108
313.266
313.441
313.398
313.036
312.705
312.376
312.142
312.075
312.233
312.312
312.538
312.835
313.127
313.511
313.617
313.329
313.049
312.748
312.498
312.406
312.507
312.603
312.85
313.123
313.378
313.634
313.626
313.394
313.172
312.919
312.674
312.569
312.477
312.559
312.802
313.102
313.383
313.653
313.82
313.262
312.938
312.636
312.412
312.332
312.16
312.223
312.408
312.659
312.926
313.628
313.868
312.81
312.508
312.25
312.068
311.999
311.651
311.718
311.909
312.165
312.453
313.624
313.29
312.181
311.832
311.54
311.344
311.28
311.567
311.565
311.637
311.768
312.069
313.085
313.012
312.784
312.594
312.388
312.191
312.081
312.564
312.719
312.911
313.107
313.301
313.499
313.859
313.603
313.36
313.105
312.842
312.614
312.682
312.866
313.067
313.256
313.437
313.614
313.763
313.549
313.347
313.129
312.893
312.669
312.649
312.792
312.951
313.11
313.283
313.476
313.367
312.994
312.667
312.345
312.105
312.029
312.147
312.222
312.438
312.73
313.035
313.469
313.603
313.242
312.928
312.618
312.378
312.297
312.379
312.465
312.706
312.996
313.29
313.617
313.555
313.265
313.013
312.757
312.526
312.427
312.552
312.651
312.88
313.117
313.334
313.55
313.592
313.38
313.19
312.974
312.747
312.636
312.575
312.686
312.953
313.234
313.48
313.7
313.947
313.593
313.198
312.826
312.543
312.443
312.355
312.443
312.746
313.271
313.803
314.197
314.033
313.228
312.833
312.491
312.278
312.209
312.488
312.585
312.881
313.31
313.731
314.406
314.234
312.97
312.612
312.306
312.095
312.019
311.424
311.502
311.723
312.025
312.388
313.997
313.546
311.987
311.587
311.3
311.118
311.06
311.449
311.45
311.527
311.654
311.939
313.25
313.225
312.926
312.676
312.406
312.151
312.008
312.483
312.707
312.99
313.272
313.539
313.799
314.206
313.884
313.557
313.206
312.847
312.546
312.567
312.913
313.325
313.726
314.102
314.46
314.07
313.794
313.516
313.217
312.902
312.62
312.609
312.922
313.27
313.598
313.904
314.197
313.834
313.609
313.392
313.156
312.896
312.645
312.591
312.747
312.915
313.078
313.254
313.457
313.298
312.905
312.584
312.273
312.037
311.961
312.046
312.118
312.32
312.6
312.907
313.4
313.559
313.117
312.791
312.485
312.263
312.19
312.276
312.354
312.587
312.892
313.214
313.608
313.578
313.244
312.958
312.68
312.443
312.352
312.444
312.539
312.76
312.993
313.215
313.446
313.418
313.192
312.994
312.785
312.578
312.479
312.583
312.679
312.88
313.075
313.248
313.416
313.509
313.329
313.172
312.987
312.78
312.671
312.619
312.731
312.983
313.238
313.463
313.645
313.879
313.657
313.296
312.923
312.624
312.511
312.458
312.568
312.947
313.616
314.023
314.123
314.372
314.39
314.279
313.965
313.52
313.336
312.891
313.035
313.488
314.003
314.259
314.482
314.818
314.684
314.586
314.388
314.1
313.923
313.346
313.488
313.835
314.186
314.405
314.829
314.739
313.68
313.245
312.86
312.564
312.45
311.229
311.319
311.599
312.033
312.558
314.469
313.981
311.836
311.378
311.115
310.95
310.898
311.366
311.376
311.47
311.608
311.9
313.655
313.692
313.304
312.94
312.544
312.18
311.972
312.465
312.827
313.268
313.683
314.04
314.352
314.794
314.403
313.972
313.48
312.962
312.534
312.528
312.982
313.541
314.084
314.572
315.015
315.096
314.599
314.078
313.512
312.941
312.484
312.527
312.902
313.345
313.78
314.192
314.591
314.652
314.224
313.792
313.339
312.879
312.491
312.562
312.897
313.267
313.617
313.946
314.265
313.859
313.625
313.398
313.15
312.874
312.605
312.529
312.693
312.867
313.03
313.208
313.419
313.224
312.798
312.483
312.186
311.961
311.888
311.945
312.016
312.205
312.471
312.776
313.321
313.501
313.006
312.67
312.374
312.165
312.096
312.2
312.275
312.499
312.803
313.153
313.622
313.633
313.241
312.925
312.632
312.392
312.303
312.406
312.505
312.731
312.972
313.21
313.47
313.144
313.032
312.919
312.768
312.585
312.482
312.514
312.612
312.802
312.97
313.104
313.219
313.24
313.087
312.958
312.805
312.632
312.538
312.616
312.708
312.879
313.03
313.158
313.278
313.451
313.294
313.153
312.98
312.779
312.672
312.614
312.714
312.951
313.195
313.407
313.571
313.767
313.606
313.27
312.91
312.626
312.523
312.519
312.636
313.054
313.676
314.008
313.98
314.193
314.362
314.325
314.088
313.782
313.641
314.334
314.412
314.576
314.642
314.568
314.409
314.633
314.655
314.655
314.535
314.337
314.242
314.697
314.77
314.909
314.953
314.928
314.932
315.148
315.011
314.945
314.827
314.658
314.569
314.241
314.375
314.593
314.762
314.888
315.231
315.232
314.528
314.252
313.856
313.507
313.363
311.359
311.482
311.873
312.486
313.162
314.964
314.324
311.779
311.286
311.048
310.899
310.85
311.408
311.433
311.561
311.719
311.959
314.114
314.341
313.978
313.518
312.938
312.371
312.029
312.585
313.17
313.827
314.367
314.759
315.02
315.47
315.111
314.626
313.995
313.261
312.629
312.582
313.199
313.958
314.653
315.223
315.717
315.784
315.169
314.54
313.817
313.071
312.494
312.405
312.936
313.654
314.378
315.033
315.731
315.082
314.561
314.023
313.447
312.873
312.42
312.363
312.805
313.372
313.947
314.488
315.019
314.656
314.216
313.772
313.306
312.833
312.435
312.508
312.858
313.243
313.609
313.953
314.291
313.863
313.617
313.381
313.124
312.837
312.554
312.465
312.634
312.811
312.973
313.15
313.368
313.154
312.685
312.378
312.093
311.882
311.811
311.852
311.921
312.1
312.354
312.654
313.257
313.484
312.918
312.579
312.289
312.089
312.022
312.155
312.229
312.45
312.757
313.114
313.673
313.726
313.274
312.927
312.619
312.374
312.284
312.402
312.505
312.734
312.98
313.232
313.518
313.069
312.98
312.886
312.751
312.58
312.482
312.458
312.548
312.702
312.816
312.89
312.941
313.031
312.931
312.839
312.707
312.54
312.442
312.46
312.558
312.741
312.901
313.032
313.145
313.146
312.985
312.867
312.727
312.564
312.473
312.573
312.669
312.837
312.982
313.104
313.211
313.446
313.304
313.16
312.967
312.741
312.62
312.631
312.732
312.973
313.205
313.389
313.549
313.747
313.588
313.229
312.88
312.613
312.519
312.514
312.624
313.025
313.655
314.043
313.952
314.173
314.407
314.392
314.175
313.873
313.734
314.431
314.514
314.686
314.752
314.665
314.404
314.644
314.928
315.049
315.045
314.913
314.831
314.73
314.796
314.905
314.895
314.783
314.636
314.907
315.047
315.182
315.238
315.166
315.099
315.075
315.138
315.235
315.24
315.211
315.232
315.509
315.355
315.297
315.212
315.072
314.991
314.846
314.925
315.067
315.189
315.295
315.622
315.669
315.115
314.953
314.754
314.516
314.388
312.273
312.441
312.932
313.636
314.238
315.492
314.749
312.096
311.541
311.277
311.123
311.073
311.72
311.772
311.966
312.163
312.281
314.596
314.972
314.816
314.38
313.635
312.789
312.251
312.909
313.767
314.637
315.194
315.453
315.622
316.075
315.787
315.412
314.72
313.768
312.893
312.77
313.571
314.547
315.356
315.894
316.319
316.391
315.736
315.09
314.249
313.331
312.632
312.497
313.102
313.937
314.758
315.447
316.379
316.307
315.098
314.407
313.638
312.894
312.369
312.298
312.789
313.471
314.184
314.84
315.642
315.538
314.629
313.986
313.302
312.663
312.211
312.282
312.713
313.269
313.838
314.377
314.912
314.621
314.173
313.723
313.251
312.773
312.37
312.446
312.806
313.202
313.577
313.935
314.291
313.849
313.593
313.348
313.083
312.788
312.496
312.399
312.573
312.753
312.913
313.092
313.321
313.095
312.574
312.272
311.999
311.803
311.732
311.769
311.838
312.012
312.256
312.553
313.214
313.499
312.864
312.52
312.233
312.037
311.972
312.137
312.212
312.435
312.748
313.12
313.752
313.832
313.331
312.955
312.633
312.382
312.289
312.415
312.521
312.75
312.999
313.256
313.549
312.984
312.923
312.851
312.739
312.584
312.491
312.456
312.546
312.693
312.799
312.862
312.9
314.824
314.359
313.777
313.193
312.754
312.594
312.585
312.741
313.159
313.695
314.222
314.645
314.581
314.115
313.611
313.113
312.718
312.563
312.56
312.708
313.08
313.547
314.041
314.527
314.34
313.866
313.448
313.046
312.71
312.573
312.61
312.748
313.054
313.399
313.737
314.071
314.114
313.684
313.335
312.995
312.698
312.578
312.47
312.558
312.831
313.211
313.654
314.596
313.644
313.678
313.438
313.003
312.68
312.564
312.838
313.036
313.575
314.068
314.121
313.845
314.062
314.327
314.466
314.449
314.271
314.164
314.654
314.717
314.778
314.687
314.516
314.309
314.546
314.804
314.974
315.098
315.086
315.03
315.461
315.496
315.483
315.354
315.163
314.798
314.9
315.204
315.37
315.414
315.321
315.249
315.693
315.752
315.823
315.752
315.543
315.211
315.191
315.344
315.499
315.584
315.546
315.49
315.46
315.514
315.582
315.564
315.53
315.554
315.878
315.709
315.65
315.584
315.464
315.389
315.292
315.354
315.477
315.583
315.685
316.003
316.069
315.572
315.439
315.294
315.141
315.063
313.88
314.052
314.484
314.873
315.167
315.977
315.329
313.097
312.516
312.162
311.987
311.934
312.799
312.852
313.025
313.127
313.071
315.221
315.578
315.555
315.48
315.075
314.231
313.465
314.3
315.172
315.742
315.96
316.077
316.191
316.643
316.411
316.181
315.847
315.095
314.108
313.819
314.74
315.659
316.202
316.531
316.892
316.979
316.428
315.985
315.286
314.342
313.544
313.288
313.962
314.853
315.624
316.178
316.994
316.934
315.83
315.21
314.437
313.621
313.054
312.908
313.405
314.107
314.816
315.432
316.794
316.163
314.7
314.036
313.339
312.689
312.238
312.128
312.505
313.055
313.658
314.277
315.948
315.411
314.381
313.762
313.118
312.527
312.114
312.198
312.615
313.156
313.714
314.245
314.773
314.558
314.104
313.65
313.177
312.699
312.298
312.379
312.744
313.145
313.528
313.896
314.267
313.828
313.56
313.305
313.034
312.732
312.432
312.331
312.509
312.694
312.853
313.034
313.272
313.05
312.468
312.17
311.906
311.724
311.655
311.7
311.77
311.941
312.18
312.475
313.191
313.538
312.84
312.49
312.204
312.009
311.944
312.141
312.217
312.443
312.762
313.152
313.85
313.925
313.394
312.994
312.661
312.403
312.307
312.432
312.542
312.769
313.011
313.26
313.535
312.874
312.853
312.811
312.723
312.586
312.498
312.474
312.569
312.727
312.849
312.932
312.995
315.071
314.552
313.902
313.255
312.783
312.62
312.62
312.75
313.228
314.03
314.991
315.955
315.79
314.735
313.856
313.14
312.698
312.572
312.566
312.694
313.127
313.792
314.587
315.532
315.249
314.43
313.731
313.119
312.695
312.56
312.561
312.698
313.102
313.66
314.28
314.968
314.712
314.089
313.549
313.05
312.681
312.561
312.618
312.743
313.135
313.634
314.144
314.751
314.497
314.062
313.652
313.229
312.85
312.673
312.536
312.664
313.034
313.573
314.268
315.145
315.876
314.461
313.636
312.948
312.58
312.467
312.577
312.7
313.097
313.678
314.195
315.095
315.597
315.142
314.795
314.436
314.078
313.915
314.767
314.889
315.193
315.548
315.826
315.812
316.057
316.151
316.104
315.826
315.5
315.361
315.951
316.084
316.348
316.477
316.412
316.339
316.581
316.668
316.757
316.764
316.593
316.471
315.88
315.914
315.899
315.775
315.528
315.078
315.411
315.937
316.224
316.363
316.358
316.313
316.115
316.172
316.235
316.145
315.906
315.535
315.524
315.691
315.862
315.966
315.944
315.895
315.845
315.894
315.941
315.909
315.868
315.886
316.232
316.069
316.01
315.958
315.851
315.783
315.705
315.762
315.875
315.97
316.069
316.365
316.443
315.989
315.866
315.739
315.606
315.539
315.046
315.149
315.357
315.566
315.751
316.392
315.981
314.541
314.023
313.697
313.502
313.443
314.537
314.454
314.383
314.259
314.077
315.924
316.18
316.149
316.142
316.143
316.163
316.217
316.366
316.396
316.466
316.546
316.629
316.721
317.16
316.978
316.803
316.63
316.474
316.384
316.302
316.485
316.689
316.917
317.15
317.42
317.559
317.172
316.918
316.669
316.429
316.177
316.07
316.347
316.605
316.856
317.113
317.64
317.661
317.011
316.768
316.537
316.308
316.046
316.144
316.31
316.486
316.674
316.882
317.618
317.542
316.797
316.638
316.504
316.387
316.294
313.016
313.422
313.989
314.586
315.124
316.617
316.4
315.069
314.677
314.279
313.907
313.626
312.013
312.318
312.786
313.316
313.866
315.651
315.257
314.095
313.516
312.925
312.389
312.017
312.109
312.507
313.031
313.574
314.094
314.641
314.468
314.012
313.56
313.089
312.615
312.22
312.307
312.673
313.076
313.463
313.839
314.222
313.801
313.52
313.256
312.978
312.67
312.364
312.263
312.445
312.634
312.796
312.982
313.234
313.017
312.37
312.075
311.819
311.649
311.581
311.644
311.717
311.888
312.125
312.42
313.184
313.59
312.839
312.481
312.195
312
311.935
312.156
312.234
312.462
312.788
313.197
313.949
313.979
313.443
313.031
312.691
312.428
312.328
312.446
312.558
312.776
313.002
313.224
313.455
312.718
312.747
312.743
312.688
312.577
312.498
312.498
312.601
312.776
312.916
313.01
313.07
315.233
314.624
313.918
313.245
312.772
312.616
312.57
312.674
313.115
313.837
314.759
315.725
315.455
314.398
313.612
313.105
313.151
313.76
320.924
329.954
353.653
424.975
586.279
566.837
391.147
333.814
320.435
316.3
313.43
314.274
318.871
355.382
528.836
485.474
335.814
315.169
313.642
313.558
314.279
314.237
314.942
328.711
458.315
469.33
331.358
315.995
315.257
315.334
316.841
316.688
318.7
346.401
512.151
511.833
346.49
318.909
316.89
316.979
317.122
317.258
317.137
317.065
318.788
343.96
504.98
466.777
330.535
316.192
315.578
315.683
314.608
314.579
315.4
330.488
469.042
497.056
337.455
315.647
314.011
313.813
314.02
314.995
319.792
358.528
543.14
577.575
400.786
342.207
325.518
320.699
331.512
344.173
372.9
442.628
601.771
607.512
447.433
371.274
340.726
327.695
319.449
325.002
343.436
408.806
587.792
557.242
367.316
321.59
315.277
314.05
313.848
314.124
316.542
344.371
515.323
486.62
335.339
315.896
314.648
314.593
315.597
315.444
316.274
332.957
476.216
500.923
342.466
318.725
317.158
317.179
317.235
315.7
314.625
313.761
313.218
313.562
315.163
312.602
312.706
313.14
313.923
314.894
315.881
315.779
314.742
313.82
313.082
312.653
312.527
312.497
312.604
312.992
313.665
314.512
315.516
315.191
314.279
313.542
312.937
312.574
312.468
312.482
312.569
312.88
313.388
313.999
314.888
314.728
313.96
313.447
312.993
312.675
312.56
312.636
312.805
313.22
313.746
314.289
314.836
314.696
313.964
313.454
312.968
312.624
312.519
312.416
312.502
312.802
313.277
313.893
315.262
315.436
314.235
313.497
312.946
312.591
312.48
312.377
312.465
312.772
313.312
314.099
316.123
316.943
315.279
314.652
313.952
313.441
313.268
313.667
313.853
314.361
314.946
315.505
316.649
317.445
316.413
315.858
315.346
314.966
314.823
315.524
315.659
316.047
316.569
317.158
317.986
318.246
317.81
317.195
316.657
316.264
316.115
316.682
316.817
317.195
317.716
318.251
318.415
318.531
318.432
318.092
317.63
317.286
317.153
316.959
317.038
317.107
317.069
316.996
316.817
317.075
317.303
317.371
317.404
317.375
317.336
316.802
316.849
316.854
316.71
316.398
315.794
315.924
316.33
316.581
316.674
316.613
316.55
316.324
316.363
316.376
316.264
316.083
315.899
316.233
316.228
316.276
316.316
316.281
316.23
316.189
316.245
316.339
316.378
316.43
316.575
316.713
316.447
316.356
316.272
316.166
316.106
315.983
316.038
316.156
316.27
316.384
316.799
316.776
316.221
316.064
315.894
315.727
315.653
314.862
314.93
315.123
315.378
315.654
316.54
316.53
315.658
315.547
315.568
315.594
315.636
316.724
316.671
316.655
316.657
316.665
316.701
317.177
317.094
317.022
316.953
316.892
316.867
316.927
317.011
317.15
317.299
317.446
317.592
317.854
317.641
317.443
317.244
317.063
316.951
316.969
317.085
317.28
317.499
317.714
318.012
318.11
317.709
317.494
317.28
317.094
316.985
317.011
317.099
317.256
317.443
317.64
318.136
318.084
317.535
317.374
317.229
317.111
317.048
317.097
317.129
317.202
317.298
317.414
317.974
316.967
317.086
317.066
317.041
317.021
317.021
316.459
316.486
316.537
316.603
316.686
317.087
314.777
315.345
315.4
315.429
315.445
315.459
314.2
314.316
314.484
314.668
314.85
315.424
315.165
313.62
313.201
312.802
312.454
312.232
311.921
312.238
312.697
313.207
313.715
314.994
314.511
313.915
313.412
312.889
312.39
312.018
312.137
312.521
312.987
313.451
313.9
314.354
314.156
313.761
313.383
312.995
312.592
312.228
312.294
312.605
312.919
313.206
313.483
313.768
313.204
312.927
312.738
312.573
312.38
312.193
311.512
311.578
311.74
311.988
312.284
312.994
313.185
312.383
312.087
311.85
311.676
311.598
311.94
312.003
312.196
312.482
312.848
313.637
314.026
313.244
312.811
312.482
312.252
312.171
312.345
312.446
312.709
313.048
313.461
313.984
313.308
313.129
312.95
312.755
312.556
312.446
312.477
312.539
312.608
312.613
312.566
312.479
313.02
313.031
312.964
312.825
312.635
312.519
312.585
312.734
313.169
313.798
314.496
315.159
315.193
315.133
315.062
316.008
334.319
486.043
483.403
510.994
546.658
557.071
554.317
400.491
389.328
364.957
342.185
333.261
315.105
315.573
319.906
332.036
342.12
323.546
318.603
314.116
313.565
314.067
314.106
313.473
313.284
314.788
316.866
313.141
312.938
313.056
313.533
314.215
314.073
313.451
313
312.807
312.835
314.476
313.803
313.175
313.375
313.923
313.943
313.637
314.192
316.639
318.333
329.794
327.493
321.652
317.705
316.357
347.387
357.972
370.962
374.837
371.971
518.568
531.661
548.292
544.479
528.372
522.562
344.043
316.699
314.915
314.958
315.022
316.543
316.39
316.578
321.851
362.381
540.64
516.627
347.284
318.552
316.48
316.603
316.699
317.017
317.823
317.928
318.296
323.693
367.563
542.627
553.272
372.086
324.508
318.501
318.108
318.109
318.102
318.128
318.444
323.063
364.327
541.523
523.891
354.38
321.445
318.397
318.236
318.22
318.382
318.375
318.496
321.075
350.805
515
498.699
342.427
318.847
317.232
317.24
317.282
315.71
315.597
315.536
316.59
335.445
483.51
491.774
516.046
551.104
583.408
601.339
435.435
401.355
365.99
345.674
337.345
316.152
316.746
321.098
337.036
358.14
332.377
321.706
314.984
314.176
314.712
314.631
313.858
313.824
317.132
322.564
313.977
313.239
313.167
313.765
314.64
314.887
313.947
313.172
312.708
312.573
312.512
312.639
313.072
313.795
314.69
315.673
315.321
314.327
313.517
312.885
312.522
312.417
312.387
312.472
312.783
313.33
314.023
314.935
314.672
313.835
313.246
312.769
312.482
312.398
312.463
312.544
312.814
313.221
313.692
314.529
315.132
313.681
313.094
312.65
312.383
312.301
312.384
312.467
312.763
313.255
313.925
315.341
315.444
314.212
313.437
312.881
312.537
312.431
312.236
312.308
312.554
312.964
313.541
315.966
315.695
313.61
313.008
312.591
312.344
312.265
312.909
313.024
313.416
314.033
314.711
316.447
317.2
315.965
315.471
315.017
314.65
314.489
314.738
314.887
315.247
315.732
316.266
317.645
318.065
317.056
316.514
316.021
315.662
315.525
316.189
316.312
316.666
317.158
317.675
318.253
318.381
318.065
317.643
317.194
316.857
316.732
317.191
317.286
317.56
317.906
318.209
318.488
318.587
318.199
317.926
317.724
317.556
317.491
317.542
317.643
317.923
318.274
318.468
318.623
318.716
318.43
318.225
318.023
317.85
317.784
317.628
317.654
317.681
317.676
317.602
317.364
316.244
316.875
317.175
317.297
317.288
317.245
317.015
317.066
317.125
317.045
316.803
316.364
316.321
316.514
316.694
316.798
316.784
316.74
316.651
316.691
316.723
316.679
316.62
316.605
316.916
316.799
316.759
316.727
316.642
316.582
316.521
316.568
316.665
316.741
316.821
317.052
317.149
316.783
316.678
316.572
316.458
316.402
316.15
316.212
316.357
316.506
316.645
317.141
316.991
316.334
316.175
316.039
315.909
315.851
316.551
316.552
316.605
316.637
316.608
317.003
317.141
317.1
317.091
317.087
317.096
317.135
317.288
317.317
317.374
317.437
317.499
317.564
317.946
317.822
317.692
317.558
317.429
317.342
317.381
317.493
317.661
317.839
318.012
318.193
318.337
318.079
317.892
317.697
317.517
317.4
317.416
317.521
317.69
317.876
318.06
318.411
318.405
317.974
317.809
317.649
317.509
317.423
317.418
317.476
317.576
317.695
317.826
318.31
318.18
317.674
317.574
317.491
317.424
317.388
317.113
317.109
317.111
317.102
317.058
316.396
311.417
313.114
313.318
313.433
313.495
313.515
314.703
314.676
314.629
314.548
314.404
313.134
309.605
310.918
311.055
311.125
311.155
311.155
312.84
312.831
312.8
312.738
312.623
311.515
313.375
313.628
313.609
313.566
313.517
313.478
312.545
312.655
312.842
313.061
313.293
314.19
314.492
313.257
312.861
312.468
312.114
311.873
311.926
312.26
312.715
313.197
313.664
314.341
314.209
313.759
313.32
312.866
312.414
312.045
312.15
312.51
312.912
313.3
313.679
314.07
313.724
313.417
313.133
312.841
312.524
312.213
312.135
312.33
312.532
312.705
312.899
313.175
312.972
312.21
311.906
311.664
311.507
311.434
311.571
311.644
311.819
312.053
312.35
313.181
313.673
312.861
312.485
312.2
312.009
311.94
312.187
312.262
312.489
312.816
313.273
314.075
313.95
313.44
313.034
312.702
312.447
312.343
312.437
312.536
312.709
312.868
313.008
313.135
312.182
312.318
312.423
312.479
312.463
312.424
312.529
312.649
312.833
312.947
312.96
312.866
314.938
314.299
313.657
313.095
312.698
312.547
312.525
312.674
313.042
313.544
314.119
314.699
314.868
314.784
314.855
320.117
364.396
550.014
553.148
548.708
524.982
497.313
486.807
349.229
354.244
361.591
364.514
364.864
318.317
319.103
320.379
321.287
320.802
314.877
314.659
313.879
313.646
313.875
313.769
313.283
313.03
313.116
313.192
312.642
312.702
312.939
313.367
313.939
313.819
313.284
312.887
312.637
312.54
312.709
312.799
312.913
313.219
314.055
316.633
314.509
313.649
313.612
313.399
316.628
317.696
319.25
323.97
329.978
387.562
373.135
355.102
343.031
338.466
474.208
483.579
516.635
544.947
561.47
570.54
399.015
338.224
320.882
316.308
314.937
317.289
321.251
329.81
353.662
419.071
580.75
561.071
383.643
329.992
318.353
316.468
316.419
317.723
319.174
323.855
341.869
404.978
576.994
559.269
382.337
329.751
319.51
317.908
317.551
317.568
317.729
318.076
322.996
364.771
538.393
538.984
368.823
324.672
318.65
317.924
317.582
317.89
318.213
318.946
325.643
372.883
544.925
564.258
382.297
327.406
319.33
318.579
318.465
318.491
318.61
319.048
324.388
368.952
547.007
525.351
355.832
322.204
319.035
318.842
318.805
319.071
319.086
319.242
322.145
353.991
520.809
537.441
362.081
323.445
319.398
319.165
319.148
318.445
318.439
318.603
321.935
356.507
527.804
510.173
346.711
319.447
317.347
317.337
317.396
315.895
314.823
313.92
313.23
313.015
313.158
318.646
326.32
350.274
425.743
586.787
578.329
401.641
334.993
319.755
315.799
313.789
314.963
321.896
371.603
559.305
532.064
351.824
317.552
314.331
313.985
314.791
314.89
316.808
342.838
510.191
501.335
340.714
317.249
315.728
315.776
315.893
315.89
318.312
349.015
524.151
541.616
355.198
318.444
315.116
314.917
314.112
314.651
320.419
367.567
559.483
572.028
385.69
324.897
315.467
313.922
315.198
319.007
334.809
400.381
566.943
563.12
406.156
342.173
322.425
316.399
312.995
312.977
313.248
313.956
314.888
315.952
316.009
315.253
314.41
313.583
312.964
312.723
312.728
312.962
313.576
314.406
315.263
316.016
315.653
314.762
313.92
313.194
312.711
312.545
312.406
312.518
312.894
313.51
314.274
315.132
314.602
313.87
313.311
312.84
312.524
312.413
312.479
312.624
312.99
313.5
314.087
314.712
314.479
313.776
313.264
312.841
312.558
312.457
312.535
312.671
313.008
313.472
314.014
314.633
315.206
314.055
313.316
312.785
312.459
312.36
312.149
312.23
312.509
313.005
313.836
315.771
315.409
313.167
312.697
312.356
312.145
312.077
312.156
312.227
312.45
312.816
313.319
315.754
316.382
313.714
313.071
312.626
312.363
312.276
312.547
312.647
312.967
313.533
314.347
316.577
317.228
315.806
315.211
314.574
314.105
313.942
315.296
315.428
315.784
316.251
316.706
317.529
317.664
316.809
316.335
315.894
315.568
315.448
316.143
316.26
316.581
317.011
317.446
317.955
318.155
317.823
317.467
317.091
316.799
316.693
317.101
317.181
317.397
317.668
317.968
318.361
318.583
317.998
317.636
317.459
317.352
317.313
317.265
317.258
317.266
317.434
317.875
318.809
318.682
318.127
317.757
317.623
317.591
317.584
317.38
317.338
317.293
317.497
318.035
318.796
318.813
318.337
317.999
317.87
317.832
317.827
317.829
317.847
317.874
317.891
317.869
317.697
316.761
317.372
317.602
317.673
317.655
317.623
317.424
317.467
317.528
317.488
317.303
316.859
316.798
316.995
317.154
317.231
317.206
317.164
317.06
317.1
317.137
317.104
317.045
317.012
317.269
317.186
317.158
317.126
317.045
316.991
316.932
316.975
317.066
317.137
317.206
317.399
317.498
317.174
317.079
316.981
316.876
316.825
316.609
316.665
316.798
316.936
317.063
317.503
317.387
316.799
316.645
316.523
316.411
316.365
317.009
317.009
317.038
317.034
316.997
317.402
317.529
317.484
317.474
317.466
317.464
317.483
317.623
317.666
317.726
317.785
317.842
317.899
318.234
318.128
318.013
317.891
317.767
317.672
317.695
317.812
317.971
318.134
318.29
318.453
318.567
318.327
318.156
317.978
317.81
317.692
317.674
317.778
317.933
318.103
318.271
318.608
318.569
318.143
317.991
317.846
317.717
317.632
317.564
317.625
317.721
317.834
317.959
318.453
318.333
317.791
317.682
317.592
317.517
317.472
317.045
317.05
317.043
317.002
316.887
315.616
310.21
311.944
312.172
312.301
312.364
312.368
308.922
308.947
308.955
308.937
308.874
308.166
308.486
309.494
309.605
309.657
309.673
309.661
307.868
307.925
307.977
308.004
307.986
307.889
308.281
308.836
308.909
308.918
308.892
308.852
310.482
310.51
310.517
310.49
310.4
309.493
311.441
311.961
311.999
311.999
311.979
311.947
312.248
312.308
312.4
312.503
312.604
312.956
313.774
312.756
312.491
312.237
312.012
311.865
311.83
312.113
312.5
312.91
313.307
314.063
314.062
313.596
313.171
312.732
312.298
311.952
312.064
312.416
312.811
313.195
313.571
313.961
313.669
313.36
313.072
312.775
312.453
312.139
312.063
312.264
312.472
312.653
312.854
313.143
312.947
312.146
311.829
311.593
311.44
311.373
311.536
311.616
311.794
312.028
312.324
313.172
313.687
312.856
312.476
312.197
312.01
311.945
312.186
312.26
312.481
312.804
313.277
314.095
313.893
313.401
312.999
312.676
312.431
312.333
312.404
312.492
312.637
312.765
312.877
312.977
311.898
312.064
312.214
312.325
312.365
312.358
312.511
312.63
312.794
312.866
312.82
312.658
312.425
312.633
312.729
312.705
312.576
312.471
312.502
312.65
312.992
313.437
313.931
314.425
314.046
313.661
313.265
312.892
312.593
312.467
312.451
312.57
312.846
313.272
314.057
316.073
318.067
314.399
313.267
312.814
312.549
312.443
312.45
312.529
312.736
313.459
315.805
324.187
315.945
312.882
312.559
312.479
313.209
313.2
314.236
322.217
337.455
368.265
342.901
324.545
320.146
321.348
377.806
371.457
386.514
412.556
442.172
602.07
590.036
575.684
553.895
559.593
600.272
590.715
594.915
599.293
605.009
451.125
434.785
421.32
417.823
431.592
342.081
336.944
342.111
358.868
379.897
349.107
331.09
319.474
315.982
316.493
312.755
312.81
314.119
320.182
333.012
318.864
314.264
312.775
312.493
312.437
312.463
312.527
312.77
313.579
316.085
325.851
335.232
363.51
379.584
404.646
461.176
605.852
605.483
460.763
412.518
394.129
381.116
347.411
336.422
366.153
394.241
438.62
511.138
629.872
604.405
461.69
389.667
353.823
335.713
321.468
325.296
346.611
368.38
408.273
482.752
617.75
595.187
440.543
369.814
340.157
327.669
319.879
320.443
329.818
343.592
375.09
447.764
600.058
580.947
411.386
345.734
325.833
320.106
317.842
317.55
318.221
320.256
331.579
386.67
561.971
557.665
381.949
329.602
319.481
317.672
316.814
316.936
317.461
318.251
323.461
364.038
532.995
538.743
367.836
324.371
318.616
317.856
317.382
318.288
318.458
319.114
325.958
376.43
557.756
540.053
364.033
323.449
318.949
318.551
318.396
319.033
319.066
319.227
322.007
353.349
520.749
523.67
355.486
322.6
319.57
319.438
319.449
319.611
319.574
319.811
324.28
365.236
542.697
556.63
374.946
326.321
320.081
319.658
319.671
319.212
319.216
319.586
325.147
370.883
551.264
536.196
361.228
322.759
318.699
318.489
318.511
317.459
317.401
317.443
320.005
350.35
518.25
517.48
350.794
320.161
317.528
317.495
317.583
316.055
315
314.074
313.312
312.913
312.806
314.073
317.33
328.731
372.637
519.984
523.398
373.469
326.873
316.314
313.839
313.606
314.802
323.019
373.963
540.457
547.79
367.602
320.219
314.563
314.087
314.958
315.138
318.668
356.796
538.496
526.184
351.089
318.665
315.999
315.971
316.037
316.11
319.948
361.896
547.934
556.752
378.145
326.486
316.563
315.114
314.168
315.63
326.027
380.296
553.49
530.642
369.748
322.999
314.698
313.505
313.363
314.957
322.297
357.585
498.507
488.1
351.882
321.415
314.919
313.282
312.827
312.942
313.341
314.084
315.039
316.151
316.567
315.654
314.775
313.934
313.273
313.009
312.894
313.127
313.75
314.575
315.436
316.32
316.043
315.251
314.416
313.617
313.021
312.794
312.528
312.648
313.077
313.779
314.623
315.586
314.96
313.856
313.28
312.826
312.53
312.421
312.477
312.643
313.048
313.612
314.269
314.997
316.042
314.801
313.87
313.146
312.669
312.502
312.466
312.611
313.043
313.704
314.544
315.608
315.535
314.421
313.581
312.943
312.538
312.403
312.347