/*--------------------------------*- C++ -*----------------------------------*\
| =========                 |                                                 |
| \\      /  F ield         | OpenFOAM: The Open Source CFD Toolbox           |
|  \\    /   O peration     | Version:  2212                                  |
|   \\  /    A nd           | Website:  www.openfoam.com                      |
|    \\/     M anipulation  |                                                 |
\*---------------------------------------------------------------------------*/
FoamFile
{
    version     2.0;
    format      ascii;
    arch        "LSB;label=32;scalar=64";
    class       volScalarField;
    location    "90";
    object      p;
}
// * * * * * * * * * * * * * * * * * * * * * * * * * * * * * * * * * * * * * //

dimensions      [0 2 -2 0 0 0 0];

internalField   nonuniform List<scalar> 
248319
(
0
0.0192777
0.0402669
0.0499087
0.0579485
0.0646513
0.070245
0.109353
0.103288
0.0960142
0.0872919
0.0768328
0.0510437
0.0498339
0.0761377
0.0872714
0.0965678
0.104326
0.110797
0.0812572
0.0763871
0.0705984
0.0636701
0.0553439
0.0330913
0.0137188
0.0280076
0.0342207
0.039521
0.044086
0.04806
0.0626247
0.0577867
0.0519889
0.0450499
0.0367408
0.0196799
-0.0539494
-0.0471902
-0.0434449
-0.0403208
-0.0376999
-0.0355236
-0.0212325
-0.0247003
-0.0288589
-0.0338367
-0.039802
-0.0507627
-0.055546
-0.0402191
-0.0334768
-0.0278617
-0.0231813
-0.0192646
0.0634658
0.0574263
0.0501778
0.0414869
0.0310657
0.000542894
0.0309066
0.0593119
0.0692846
0.0775991
0.0845269
0.090306
0.100135
0.0944883
0.0877133
0.0795864
0.0698429
0.0359011
0.0499474
0.0749708
0.0847338
0.092871
0.0996549
0.105309
0.109526
0.103003
0.0951819
0.0858056
0.0745663
0.0473118
0.0190739
0.0397455
0.0463722
0.0518985
0.0565813
0.0606301
-0.0356328
-0.038363
-0.041093
-0.043821
-0.0465505
-0.0535721
-0.0515049
-0.0438567
-0.0414683
-0.0392277
-0.0370895
-0.0350247
-0.140388
-0.140798
-0.141188
-0.141557
-0.141896
-0.14527
-0.144826
-0.141948
-0.140968
-0.140153
-0.139472
-0.138899
-0.132515
-0.133793
-0.135339
-0.137177
-0.139386
-0.144443
-0.145906
-0.139377
-0.136705
-0.134476
-0.132607
-0.131066
-0.133992
-0.13563
-0.137608
-0.139968
-0.142811
-0.150195
-0.0695836
-0.0525822
-0.045762
-0.0400764
-0.0353432
-0.0313809
0.047314
0.0406937
0.032753
0.0232222
0.0117958
-0.0194652
-0.00915947
0.0315419
0.0452778
0.0567307
0.0662813
0.0742436
0.0901743
0.0833691
0.0752084
0.0654171
0.0536745
0.0104138
0.00965855
0.0523178
0.0641555
0.0740222
0.0822455
0.0891017
0.0978814
0.0923002
0.0856032
0.0775663
0.0679243
0.0344804
0.048942
0.07352
0.0833185
0.0914826
0.0982858
0.103953
0.109475
0.10278
0.0947534
0.0851308
0.0735943
0.0456349
0.0147836
0.0354093
0.0421946
0.0479075
0.0527891
0.0570355
-0.0392385
-0.0419544
-0.0446721
-0.0473901
-0.0501105
-0.0586924
-0.147621
-0.143315
-0.142597
-0.141879
-0.141161
-0.140443
-0.139444
-0.140147
-0.140846
-0.141545
-0.142243
-0.146188
-0.243995
-0.242351
-0.242278
-0.242205
-0.242133
-0.242059
-0.242968
-0.242956
-0.242922
-0.242862
-0.242764
-0.243759
-0.243292
-0.242387
-0.242262
-0.242155
-0.24207
-0.242003
-0.238675
-0.238998
-0.239379
-0.239844
-0.240395
-0.242607
-0.24286
-0.239808
-0.239088
-0.238486
-0.237986
-0.23756
-0.238123
-0.238591
-0.239155
-0.239823
-0.240623
-0.244227
-0.245664
-0.241506
-0.24053
-0.239722
-0.239037
-0.238479
-0.136228
-0.138072
-0.140289
-0.142945
-0.146132
-0.154327
-0.0774
-0.0596852
-0.0525315
-0.046566
-0.0416009
-0.0374546
0.0342149
0.0274377
0.019304
0.00953996
-0.00216144
-0.0328474
-0.0252854
0.0126321
0.026663
0.0383616
0.0481148
0.0562422
0.0568248
0.0485571
0.038634
0.0267303
0.0124498
-0.0247301
-0.0091278
0.030691
0.0447122
0.0563986
0.0661409
0.0742619
0.0739361
0.0657343
0.0558932
0.0440874
0.0299181
-0.00975257
0.00872953
0.0514165
0.063416
0.0734133
0.0817458
0.0886906
0.0975799
0.0919205
0.0851313
0.0769827
0.0672062
0.0335581
0.0480734
0.0729867
0.0829152
0.0911883
0.0980835
0.103827
0.109427
0.102621
0.0944585
0.0846731
0.0729404
0.044535
0.0132916
0.0339993
0.040972
0.0468587
0.0518989
0.0562858
-0.0407164
-0.0434395
-0.046162
-0.0488847
-0.0516087
-0.0603937
-0.148678
-0.144123
-0.143448
-0.142772
-0.142098
-0.141423
-0.242701
-0.242776
-0.242852
-0.24293
-0.243006
-0.245094
-0.24448
-0.242458
-0.242386
-0.242314
-0.242242
-0.242169
-0.343409
-0.343406
-0.343404
-0.343403
-0.343399
-0.344177
-0.343947
-0.343384
-0.343407
-0.343428
-0.34345
-0.343471
-0.34421
-0.344157
-0.344092
-0.344015
-0.343919
-0.344006
-0.343676
-0.343582
-0.343636
-0.343687
-0.343727
-0.343762
-0.341949
-0.341996
-0.342049
-0.342117
-0.342198
-0.343024
-0.342976
-0.34172
-0.341592
-0.341479
-0.34139
-0.341323
-0.341468
-0.34155
-0.34166
-0.341794
-0.341945
-0.343469
-0.343952
-0.342136
-0.341949
-0.341784
-0.341653
-0.34154
-0.340758
-0.340952
-0.341168
-0.341438
-0.341758
-0.344006
-0.246057
-0.241091
-0.239714
-0.238569
-0.237606
-0.23682
-0.134521
-0.136838
-0.139626
-0.142966
-0.146967
-0.156225
-0.0818391
-0.0633183
-0.0553525
-0.0487088
-0.0431869
-0.0385647
0.0239706
0.017492
0.00971515
0.000383838
-0.0108007
-0.0405093
-0.0341784
0.00127537
0.0135903
0.0238589
0.032419
0.0395523
0.0405651
0.0333937
0.0247885
0.0144646
0.00208021
-0.0330939
-0.0329076
0.00219484
0.0145664
0.0248779
0.033473
0.0406341
0.0567282
0.0484246
0.0384602
0.0265075
0.0121649
-0.024871
-0.0250383
0.0120537
0.0263968
0.0383486
0.0483093
0.0566087
0.0737428
0.0655297
0.0556736
0.0438442
0.0296523
-0.0101002
0.00828328
0.0511232
0.0631596
0.0731849
0.0815436
0.0885067
0.0974573
0.0917785
0.084967
0.0767911
0.0669771
0.0331515
0.0476897
0.0727855
0.0827557
0.091062
0.0979848
0.103752
0.109384
0.102533
0.0943154
0.0844632
0.0726521
0.0440667
0.0127377
0.0335616
0.040603
0.0465491
0.0516414
0.0560698
-0.0411983
-0.0439172
-0.0466352
-0.0493539
-0.0520741
-0.0610004
-0.149283
-0.14472
-0.144041
-0.143361
-0.142681
-0.142002
-0.243157
-0.243233
-0.243311
-0.243388
-0.243464
-0.245541
-0.344822
-0.343997
-0.343997
-0.343997
-0.343997
-0.343997
-0.343683
-0.343683
-0.343683
-0.343683
-0.343683
-0.344517
-0.444285
-0.44396
-0.44396
-0.44396
-0.44396
-0.44396
-0.443806
-0.443805
-0.443803
-0.443802
-0.4438
-0.444084
-0.443996
-0.443843
-0.443858
-0.443872
-0.443887
-0.4439
-0.444461
-0.44443
-0.444392
-0.444344
-0.444289
-0.444139
-0.443994
-0.44413
-0.444189
-0.444242
-0.444287
-0.444321
-0.443393
-0.443393
-0.443387
-0.443381
-0.443376
-0.443632
-0.443707
-0.443262
-0.443258
-0.443244
-0.44324
-0.443225
-0.443586
-0.443608
-0.443605
-0.443626
-0.443642
-0.444152
-0.444726
-0.444187
-0.444152
-0.444137
-0.444127
-0.444104
-0.444408
-0.444433
-0.444469
-0.444504
-0.444559
-0.44518
-0.445396
-0.444577
-0.444462
-0.44436
-0.444285
-0.444221
-0.338892
-0.339259
-0.33968
-0.340194
-0.340807
-0.343696
-0.245853
-0.239668
-0.237488
-0.235669
-0.234142
-0.232883
-0.124323
-0.127575
-0.131489
-0.136183
-0.141819
-0.154711
-0.0825154
-0.0606396
-0.0513648
-0.0436295
-0.037198
-0.031812
0.0161657
0.00996254
0.00252088
-0.00640755
-0.0171167
-0.0446068
-0.040714
-0.0115198
-0.00121205
0.00738403
0.0145457
0.0205191
0.0212583
0.0153382
0.00823714
-0.000285666
-0.0105077
-0.0395483
-0.0393208
-0.0103372
-0.00013755
0.00836453
0.0154484
0.0213549
0.0213316
0.015428
0.00835237
-0.000142746
-0.0103404
-0.0393526
-0.032959
0.0021873
0.0145486
0.024851
0.0334338
0.0405863
0.0405386
0.0333868
0.024807
0.0145065
0.0021464
-0.0330524
-0.0251677
0.0119834
0.026325
0.0382762
0.0482345
0.0565318
0.0736469
0.0654313
0.0555725
0.0437401
0.0295453
-0.0102795
0.00809082
0.0510191
0.0630603
0.0730923
0.0814561
0.088424
0.0974047
0.0917232
0.0849057
0.0767246
0.0669061
0.0330039
0.0475589
0.0727248
0.0827051
0.0910201
0.0979504
0.103724
0.109374
0.102506
0.0942701
0.0843942
0.072556
0.0439237
0.0125821
0.0335121
0.0405936
0.0465738
0.0516918
0.0561375
-0.0413526
-0.044081
-0.0468085
-0.0495359
-0.0522644
-0.0612174
-0.149541
-0.144986
-0.144305
-0.143624
-0.142941
-0.142258
-0.243426
-0.243503
-0.24358
-0.243656
-0.243733
-0.245791
-0.345036
-0.344233
-0.344234
-0.344233
-0.344233
-0.344233
-0.444392
-0.444392
-0.444392
-0.444392
-0.444392
-0.444694
-0.444505
-0.444185
-0.444185
-0.444185
-0.444185
-0.444185
-0.543748
-0.543748
-0.543748
-0.543748
-0.543748
-0.543883
-0.543696
-0.543556
-0.543556
-0.543556
-0.543555
-0.543556
-0.543443
-0.543443
-0.543443
-0.543442
-0.543441
-0.543561
-0.543529
-0.543485
-0.543493
-0.5435
-0.543506
-0.543514
-0.5439
-0.543884
-0.543865
-0.54384
-0.543811
-0.543676
-0.54368
-0.543822
-0.543862
-0.543888
-0.543907
-0.543939
-0.543607
-0.543591
-0.5436
-0.543587
-0.54358
-0.543622
-0.543933
-0.543843
-0.543837
-0.543854
-0.543834
-0.543843
-0.544585
-0.544576
-0.544596
-0.544585
-0.54459
-0.544624
-0.545631
-0.545712
-0.545712
-0.545715
-0.545704
-0.545708
-0.547059
-0.547063
-0.547068
-0.547069
-0.547075
-0.546852
-0.548129
-0.548472
-0.548447
-0.548442
-0.548422
-0.548411
-0.549316
-0.549339
-0.549379
-0.549413
-0.549461
-0.549091
-0.445343
-0.444149
-0.443877
-0.443652
-0.443467
-0.44331
-0.336084
-0.336742
-0.337513
-0.338447
-0.339572
-0.343326
-0.246676
-0.238983
-0.235669
-0.232903
-0.230588
-0.228667
-0.121774
-0.125814
-0.130679
-0.136516
-0.143518
-0.159733
-0.109598
-0.0815241
-0.0712085
-0.0626034
-0.0554317
-0.0494495
-0.0145123
-0.0204341
-0.0275271
-0.0360435
-0.0462558
-0.07365
-0.0681769
-0.0358265
-0.0257758
-0.0173984
-0.0104103
-0.00458196
-0.00460066
-0.0104191
-0.017393
-0.0257602
-0.0358053
-0.0676313
-0.0675442
-0.0358206
-0.0257751
-0.0174047
-0.0104291
-0.0046144
-0.00465996
-0.0104729
-0.0174505
-0.0258176
-0.0358613
-0.0676105
-0.0677004
-0.0359171
-0.0258679
-0.0174952
-0.0105176
-0.00470188
0.0212946
0.0153912
0.00831323
-0.00018406
-0.0103839
-0.03943
-0.0394924
-0.0104236
-0.000222806
0.00827867
0.0153615
0.0212647
0.0405097
0.0333554
0.0247714
0.0144703
0.00210871
-0.0331193
-0.0252401
0.0119452
0.0262852
0.0382356
0.0481944
0.0564937
0.0736029
0.0653873
0.0555288
0.0436986
0.0295049
-0.0103576
0.00802314
0.0509848
0.0630249
0.0730585
0.0814225
0.0883901
0.097387
0.0917042
0.0848854
0.0767047
0.0668905
0.0329669
0.0475304
0.0727125
0.0826924
0.0910082
0.0979388
0.103714
0.109368
0.102498
0.0942587
0.0843791
0.0725383
0.0438953
0.0125509
0.0335053
0.0405909
0.0465731
0.0516942
0.0561412
-0.0413804
-0.0441115
-0.0468399
-0.049568
-0.0522983
-0.0612579
-0.149621
-0.145075
-0.144393
-0.143711
-0.14303
-0.142346
-0.243552
-0.243629
-0.243705
-0.243782
-0.243859
-0.2459
-0.345164
-0.344376
-0.344376
-0.344376
-0.344376
-0.344376
-0.444559
-0.444559
-0.444559
-0.444559
-0.444559
-0.444846
-0.544303
-0.544199
-0.544199
-0.544199
-0.544199
-0.544199
-0.543968
-0.543968
-0.543968
-0.543968
-0.543968
-0.544087
-0.643194
-0.643155
-0.643155
-0.643155
-0.643155
-0.643155
-0.642855
-0.642855
-0.642855
-0.642855
-0.642855
-0.642913
-0.642706
-0.642637
-0.642637
-0.642637
-0.642637
-0.642637
-0.642518
-0.642518
-0.642517
-0.642517
-0.642517
-0.64258
-0.642558
-0.642533
-0.642536
-0.642538
-0.64254
-0.642544
-0.642788
-0.642781
-0.642774
-0.642766
-0.642753
-0.642676
-0.642775
-0.642872
-0.642882
-0.642894
-0.642914
-0.642914
-0.642964
-0.642973
-0.642962
-0.642964
-0.642962
-0.642932
-0.643445
-0.643499
-0.643505
-0.643502
-0.643502
-0.643502
-0.644577
-0.644582
-0.644573
-0.644584
-0.644574
-0.644397
-0.645847
-0.646234
-0.646238
-0.646227
-0.646235
-0.646231
-0.648468
-0.64847
-0.648475
-0.648478
-0.648474
-0.64782
-0.650209
-0.65116
-0.651165
-0.65116
-0.651153
-0.651156
-0.653661
-0.653661
-0.653669
-0.653673
-0.653676
-0.652515
-0.653224
-0.654542
-0.654517
-0.654509
-0.654487
-0.654483
-0.548959
-0.549032
-0.549111
-0.549203
-0.549317
-0.549084
-0.445064
-0.443228
-0.442659
-0.442183
-0.441786
-0.441463
-0.332423
-0.333576
-0.334927
-0.336564
-0.33853
-0.343588
-0.247312
-0.235393
-0.230354
-0.226151
-0.222632
-0.219725
-0.125712
-0.13037
-0.135955
-0.142657
-0.150693
-0.170159
-0.126784
-0.0995975
-0.0890922
-0.0803329
-0.073031
-0.0669453
-0.055364
-0.0619314
-0.0698201
-0.0792773
-0.0906253
-0.121108
-0.102544
-0.066492
-0.0549504
-0.0453261
-0.0373051
-0.0306157
-0.030762
-0.0374146
-0.0453972
-0.0549733
-0.0664627
-0.101797
-0.10168
-0.066563
-0.0550733
-0.0454952
-0.0375119
-0.0308602
-0.0309352
-0.0375877
-0.0455723
-0.0551503
-0.0666437
-0.101733
-0.101822
-0.0667052
-0.0552069
-0.0456287
-0.0376413
-0.0309864
-0.0310203
-0.037675
-0.0456646
-0.0552478
-0.066751
-0.101892
-0.0677671
-0.0359604
-0.0259062
-0.0175286
-0.0105488
-0.00472998
-0.00474506
-0.0105673
-0.0175491
-0.025932
-0.035986
-0.0678098
-0.0395306
-0.0104474
-0.000244269
0.00825521
0.0153429
0.0212453
0.0404935
0.0333372
0.024752
0.0144492
0.00208504
-0.0331596
-0.0252764
0.0119255
0.0262672
0.0382183
0.0481789
0.0564762
0.0735881
0.065373
0.0555146
0.0436845
0.0294915
-0.0103852
0.0080084
0.0509782
0.0630162
0.0730494
0.0814132
0.0883785
0.0973828
0.0916998
0.0848837
0.0767045
0.0668895
0.0329678
0.0475344
0.0727114
0.0826921
0.0910086
0.0979374
0.103712
0.109368
0.102498
0.0942585
0.0843787
0.0725375
0.0439075
0.0125742
0.0335398
0.0406314
0.0466172
0.0517396
0.0561885
-0.0413656
-0.0440947
-0.0468226
-0.049553
-0.0522839
-0.0612429
-0.149629
-0.145091
-0.144409
-0.143725
-0.143042
-0.142361
-0.243598
-0.243674
-0.243751
-0.24383
-0.243906
-0.245938
-0.345237
-0.344458
-0.344458
-0.344458
-0.344458
-0.344458
-0.444698
-0.444698
-0.444698
-0.444698
-0.444698
-0.444975
-0.544538
-0.54445
-0.544451
-0.544451
-0.544451
-0.544451
-0.644035
-0.644035
-0.644035
-0.644035
-0.644035
-0.644008
-0.643558
-0.643549
-0.643548
-0.643549
-0.643549
-0.643549
-0.742882
-0.742883
-0.742882
-0.742883
-0.742882
-0.742808
-0.74216
-0.742181
-0.742181
-0.742181
-0.742181
-0.742181
-0.741693
-0.741693
-0.741693
-0.741693
-0.741693
-0.741708
-0.741417
-0.741383
-0.741383
-0.741383
-0.741383
-0.741383
-0.741217
-0.741217
-0.741217
-0.741217
-0.741217
-0.741256
-0.741213
-0.741184
-0.741185
-0.741185
-0.741187
-0.741188
-0.741305
-0.741305
-0.741304
-0.741305
-0.741304
-0.741287
-0.74142
-0.741463
-0.741464
-0.741467
-0.741469
-0.741471
-0.741754
-0.741754
-0.741753
-0.741752
-0.741752
-0.741701
-0.742326
-0.742449
-0.742446
-0.742441
-0.742451
-0.742445
-0.743706
-0.7437
-0.7437
-0.743697
-0.743706
-0.743428
-0.745144
-0.74566
-0.745654
-0.745666
-0.745657
-0.745663
-0.748448
-0.748447
-0.748451
-0.748442
-0.748445
-0.747592
-0.750735
-0.752019
-0.752017
-0.752017
-0.752019
-0.752019
-0.755824
-0.755838
-0.755821
-0.755834
-0.75583
-0.754145
-0.757006
-0.7583
-0.758302
-0.758288
-0.758302
-0.758288
-0.752349
-0.752354
-0.752353
-0.752369
-0.75237
-0.750911
-0.650127
-0.651439
-0.651383
-0.651349
-0.651306
-0.651289
-0.546535
-0.54671
-0.546888
-0.547106
-0.547379
-0.547571
-0.444605
-0.441805
-0.440731
-0.439834
-0.439082
-0.438469
-0.328997
-0.330805
-0.332962
-0.335562
-0.338671
-0.345488
-0.255378
-0.239735
-0.233223
-0.227794
-0.223263
-0.219494
-0.14096
-0.146842
-0.153885
-0.162347
-0.172483
-0.201288
-0.161033
-0.133954
-0.123862
-0.115444
-0.108424
-0.102565
-0.0845294
-0.090958
-0.0986663
-0.107912
-0.118998
-0.153279
-0.152028
-0.118422
-0.107525
-0.0984398
-0.0908685
-0.0845562
-0.0557029
-0.0621189
-0.0698259
-0.0790685
-0.0901579
-0.119903
-0.119719
-0.0901941
-0.0791327
-0.0699135
-0.0622308
-0.0558296
-0.0559239
-0.0623235
-0.0700018
-0.0792184
-0.0902749
-0.119779
-0.119868
-0.0903452
-0.0792856
-0.0700667
-0.0623837
-0.0559843
-0.0560205
-0.062422
-0.0701077
-0.0793315
-0.0903961
-0.119937
-0.11998
-0.0904255
-0.0793598
-0.0701318
-0.0624459
-0.0560393
-0.0310393
-0.0376939
-0.0456858
-0.0552716
-0.0667795
-0.101938
-0.101965
-0.066793
-0.0552848
-0.045699
-0.0377072
-0.0310472
-0.00475763
-0.0105756
-0.0175605
-0.0259434
-0.0359996
-0.0678361
-0.0395525
-0.01046
-0.000254949
0.00824675
0.0153321
0.0212377
0.0404854
0.0333305
0.024742
0.0144385
0.00207329
-0.0331823
-0.0252948
0.0119176
0.0262602
0.0382105
0.0481717
0.0564709
0.0735858
0.0653706
0.0555105
0.0436845
0.0294904
-0.0103934
0.00800965
0.0509813
0.0630191
0.0730495
0.0814115
0.0883786
0.0973831
0.0917021
0.0848879
0.0767098
0.0668951
0.0329773
0.0475419
0.0727151
0.0826959
0.0910111
0.0979404
0.103714
0.109368
0.102498
0.0942596
0.0843811
0.0725401
0.0439147
0.0125876
0.033549
0.0406393
0.0466262
0.0517457
0.0561924
-0.0413423
-0.0440711
-0.0467999
-0.0495303
-0.0522623
-0.0612184
-0.149615
-0.14508
-0.144398
-0.143714
-0.14303
-0.142348
-0.243612
-0.243688
-0.243767
-0.243845
-0.243921
-0.245949
-0.345286
-0.344512
-0.344512
-0.344512
-0.344512
-0.344512
-0.44482
-0.44482
-0.44482
-0.44482
-0.44482
-0.445088
-0.544782
-0.544717
-0.544718
-0.544718
-0.544717
-0.544718
-0.644591
-0.644591
-0.644591
-0.644591
-0.644591
-0.644514
-0.744678
-0.744944
-0.744944
-0.744944
-0.744944
-0.744944
-0.743822
-0.743822
-0.743822
-0.743822
-0.743822
-0.743665
-0.843842
-0.844197
-0.844197
-0.844197
-0.844197
-0.844197
-0.842453
-0.842453
-0.842453
-0.842453
-0.842453
-0.842266
-0.841134
-0.841216
-0.841216
-0.841216
-0.841216
-0.841216
-0.840416
-0.840416
-0.840416
-0.840416
-0.840416
-0.840396
-0.839954
-0.839943
-0.839943
-0.839943
-0.839943
-0.839943
-0.839692
-0.839692
-0.839692
-0.839692
-0.839692
-0.839717
-0.83963
-0.839598
-0.839598
-0.839597
-0.839596
-0.839595
-0.83962
-0.839624
-0.839629
-0.839632
-0.839638
-0.839654
-0.839784
-0.839789
-0.839789
-0.839782
-0.839779
-0.839777
-0.840144
-0.840149
-0.84014
-0.840144
-0.840146
-0.840097
-0.840722
-0.840855
-0.840849
-0.840852
-0.840857
-0.840852
-0.842088
-0.842088
-0.842096
-0.842085
-0.842091
-0.841805
-0.843512
-0.844036
-0.844037
-0.844037
-0.844038
-0.844033
-0.846882
-0.846896
-0.846881
-0.846888
-0.84689
-0.846005
-0.849272
-0.850677
-0.850668
-0.85067
-0.850679
-0.850672
-0.854986
-0.854976
-0.854981
-0.854972
-0.854982
-0.852834
-0.856018
-0.858654
-0.858651
-0.85865
-0.85865
-0.858652
-0.859238
-0.859243
-0.859239
-0.859242
-0.859239
-0.85801
-0.901196
-0.901607
-0.901596
-0.901587
-0.901576
-0.901569
-0.925074
-0.933756
-0.940994
-0.947028
-0.952056
-0.952054
-0.947026
-0.940997
-0.933764
-0.925087
-0.925098
-0.933774
-0.941008
-0.947031
-0.952047
-0.952048
-0.947026
-0.941006
-0.933779
-0.925115
-0.925129
-0.93379
-0.941014
-0.947021
-0.952039
-0.952187
-0.947023
-0.940833
-0.9334
-0.924481
-0.925692
-0.934394
-0.94165
-0.947689
-0.952727
-0.90991
-0.903476
-0.895756
-0.88649
-0.875369
-0.848783
-0.80506
-0.838023
-0.85159
-0.862896
-0.872317
-0.880165
-0.880012
-0.871998
-0.862374
-0.850829
-0.836972
-0.837518
-0.851189
-0.86258
-0.872072
-0.87998
-0.879995
-0.872084
-0.862588
-0.851191
-0.837515
-0.837515
-0.851198
-0.862594
-0.872091
-0.880007
-0.880025
-0.872104
-0.862602
-0.851197
-0.837515
-0.837513
-0.851198
-0.862604
-0.872109
-0.880028
-0.865296
-0.856807
-0.846619
-0.834392
-0.819718
-0.819719
-0.834388
-0.846613
-0.856801
-0.865288
-0.865279
-0.856793
-0.846608
-0.834385
-0.81972
-0.819716
-0.83438
-0.8466
-0.85678
-0.865266
-0.86525
-0.85677
-0.846591
-0.834375
-0.819716
-0.818233
-0.833325
-0.845902
-0.856378
-0.865106
-0.865059
-0.856226
-0.845625
-0.832901
-0.817631
-0.782401
-0.782336
-0.782407
-0.782392
-0.782373
-0.782355
-0.782351
-0.718829
-0.718887
-0.718933
-0.719002
-0.719079
-0.717986
-0.636451
-0.636852
-0.636476
-0.636176
-0.635907
-0.635699
-0.536316
-0.537029
-0.537859
-0.538883
-0.54009
-0.542429
-0.446163
-0.439738
-0.436579
-0.433953
-0.431748
-0.429922
-0.321621
-0.325327
-0.32976
-0.335088
-0.341471
-0.356625
-0.302161
-0.273991
-0.264389
-0.256388
-0.249713
-0.244151
-0.204077
-0.209658
-0.216368
-0.224409
-0.234046
-0.260246
-0.222137
-0.195121
-0.185136
-0.176807
-0.169867
-0.164079
-0.150272
-0.156534
-0.164041
-0.173047
-0.183852
-0.21479
-0.191918
-0.153459
-0.141738
-0.131966
-0.123819
-0.117029
-0.116781
-0.123469
-0.131485
-0.141106
-0.152649
-0.190285
-0.189911
-0.152596
-0.141087
-0.131494
-0.123505
-0.116839
-0.0846744
-0.0909727
-0.0985338
-0.107607
-0.118488
-0.151843
-0.151888
-0.118569
-0.107691
-0.0986254
-0.0910694
-0.0847778
-0.0848429
-0.0911377
-0.098696
-0.107765
-0.11865
-0.151982
-0.152057
-0.118704
-0.107814
-0.0987419
-0.0911812
-0.0848843
-0.0849044
-0.0912039
-0.0987704
-0.107841
-0.118736
-0.152105
-0.152135
-0.118755
-0.10786
-0.0987864
-0.0912179
-0.0849148
-0.0560504
-0.0624597
-0.0701478
-0.0793759
-0.0904434
-0.120007
-0.120022
-0.0904534
-0.0793824
-0.0701557
-0.0624653
-0.056056
-0.0310531
-0.037713
-0.0457049
-0.0552952
-0.0668014
-0.101979
-0.0678467
-0.036007
-0.0259483
-0.0175681
-0.0105806
-0.00476272
0.0212325
0.0153268
0.00824145
-0.000262314
-0.0104658
-0.0395628
-0.0331932
0.00206796
0.0144332
0.0247367
0.0333271
0.0404827
0.056473
0.0481697
0.0382088
0.0262602
0.0119176
-0.025301
-0.0103925
0.0294961
0.0436901
0.0555155
0.0653714
0.0735866
0.0883787
0.081414
0.0730547
0.0630243
0.0509872
0.00801598
0.0329863
0.066902
0.0767131
0.0848905
0.0917055
0.0973835
0.103715
0.097941
0.0910108
0.0826978
0.0727206
0.04755
0.0439247
0.0725456
0.0843844
0.0942603
0.102497
0.109368
0.0562046
0.0517584
0.0466381
0.040652
0.0335624
0.0126031
-0.0611985
-0.0522445
-0.0495135
-0.0467846
-0.0440534
-0.0413235
-0.142335
-0.143018
-0.1437
-0.144383
-0.145066
-0.149601
-0.245953
-0.243925
-0.243848
-0.24377
-0.243693
-0.243616
-0.34455
-0.34455
-0.344551
-0.34455
-0.344551
-0.345321
-0.44519
-0.444929
-0.444929
-0.444929
-0.444929
-0.444929
-0.544974
-0.544974
-0.544974
-0.544974
-0.544974
-0.545017
-0.64502
-0.645151
-0.645151
-0.645151
-0.645151
-0.645151
-0.746114
-0.746114
-0.746114
-0.746114
-0.746114
-0.745725
-0.847854
-0.848727
-0.848727
-0.848727
-0.848727
-0.848727
-0.846381
-0.846381
-0.846381
-0.846381
-0.846381
-0.845788
-0.94833
-0.949508
-0.949508
-0.949508
-0.949508
-0.949508
-0.945476
-0.945476
-0.945476
-0.945476
-0.945476
-0.944794
-0.942066
-0.94242
-0.94242
-0.94242
-0.94242
-0.94242
-0.940373
-0.940372
-0.940373
-0.940373
-0.940373
-0.940211
-0.939059
-0.939117
-0.939117
-0.939117
-0.939117
-0.939117
-0.938408
-0.938408
-0.938408
-0.938408
-0.938408
-0.938399
-0.938056
-0.938041
-0.93804
-0.93804
-0.93804
-0.93804
-0.937872
-0.937875
-0.937877
-0.937876
-0.937878
-0.937907
-0.937879
-0.937849
-0.937842
-0.937837
-0.937831
-0.937826
-0.93794
-0.937943
-0.937947
-0.937953
-0.937964
-0.937974
-0.938247
-0.938283
-0.938277
-0.938277
-0.938277
-0.938277
-0.938872
-0.938872
-0.938872
-0.938875
-0.938872
-0.938767
-0.939663
-0.939889
-0.939899
-0.939888
-0.939897
-0.939892
-0.941519
-0.941513
-0.941513
-0.941516
-0.941516
-0.941089
-0.943206
-0.943936
-0.943937
-0.943938
-0.943926
-0.943942
-0.947222
-0.947218
-0.947227
-0.947229
-0.947218
-0.946
-0.949073
-0.951225
-0.951231
-0.951234
-0.951224
-0.951226
-0.955655
-0.95564
-0.955654
-0.95565
-0.955647
-0.951598
-0.967683
-0.985594
-0.991733
-0.996848
-1.00111
-1.00466
-1.0041
-1.0041
-1.0041
-1.0041
-1.00411
-1.0006
-1.00061
-1.00061
-1.00061
-1.00062
-0.99642
-0.996416
-0.996408
-0.996402
-0.996392
-0.991341
-0.991354
-0.991364
-0.991384
-0.9914
-0.985363
-0.985335
-0.985313
-0.985299
-0.985278
-0.969892
-0.969895
-0.969914
-0.969927
-0.96994
-1.05309
-1.05306
-1.05305
-1.05304
-1.05303
-1.05703
-1.05704
-1.05707
-1.05709
-1.05712
-1.05957
-1.05955
-1.05953
-1.05951
-1.0595
-1.06156
-1.06157
-1.06158
-1.0616
-1.06161
-1.06331
-1.0633
-1.06329
-1.06329
-1.06328
-1.06471
-1.06472
-1.06471
-1.06472
-1.06472
-1.06517
-1.06372
-1.06196
-1.05985
-1.05731
-1.05276
-1.0525
-1.05789
-1.06047
-1.06261
-1.0644
-1.06588
-1.00575
-1.00227
-0.998096
-0.993085
-0.987068
-0.965378
-0.902001
-0.904912
-0.929482
-0.937238
-0.943705
-0.94909
-0.953572
-0.910383
-0.904615
-0.897693
-0.889389
-0.879425
-0.851436
-0.807339
-0.84116
-0.853823
-0.864378
-0.873168
-0.880497
-0.865271
-0.856755
-0.846534
-0.83427
-0.819549
-0.78441
-0.783326
-0.818588
-0.833626
-0.846157
-0.856598
-0.865294
-0.865126
-0.856113
-0.845293
-0.832305
-0.816719
-0.781273
-0.780834
-0.817159
-0.832628
-0.845518
-0.856254
-0.865201
-0.865343
-0.865355
-0.865366
-0.865371
-0.865378
-0.856628
-0.856624
-0.85662
-0.856614
-0.856605
-0.846119
-0.846122
-0.846124
-0.846124
-0.846126
-0.833521
-0.833523
-0.833528
-0.83353
-0.833532
-0.818431
-0.818421
-0.818414
-0.818402
-0.818395
-0.780359
-0.780389
-0.780425
-0.780478
-0.780529
-0.716454
-0.716184
-0.715954
-0.715768
-0.715605
-0.630726
-0.631255
-0.631897
-0.632647
-0.633568
-0.634423
-0.541652
-0.537042
-0.534654
-0.532657
-0.53101
-0.529613
-0.420805
-0.423733
-0.427268
-0.431511
-0.436586
-0.447956
-0.370545
-0.352051
-0.344553
-0.338308
-0.333094
-0.328744
-0.270595
-0.275936
-0.282346
-0.290033
-0.299258
-0.325126
-0.317663
-0.288001
-0.2784
-0.270394
-0.263723
-0.258161
-0.220276
-0.226552
-0.234084
-0.243119
-0.253954
-0.292171
-0.251773
-0.218289
-0.207727
-0.198917
-0.191569
-0.185447
-0.18487
-0.190846
-0.19801
-0.206608
-0.216919
-0.249829
-0.212896
-0.182757
-0.172261
-0.163517
-0.156222
-0.150145
-0.150115
-0.15616
-0.163408
-0.172102
-0.182539
-0.212399
-0.212337
-0.18254
-0.172119
-0.163436
-0.156201
-0.150164
-0.116924
-0.123579
-0.131564
-0.141147
-0.152647
-0.189885
-0.18996
-0.152714
-0.141213
-0.131628
-0.123643
-0.116985
-0.117025
-0.123687
-0.131674
-0.141263
-0.152765
-0.19003
-0.190081
-0.152799
-0.141294
-0.131702
-0.123711
-0.117052
-0.117064
-0.123723
-0.131719
-0.14131
-0.15282
-0.190112
-0.190129
-0.152831
-0.141319
-0.131725
-0.12373
-0.11707
-0.0849202
-0.0912235
-0.0987915
-0.10787
-0.118763
-0.15215
-0.15216
-0.118768
-0.107873
-0.0987914
-0.0912257
-0.0849207
-0.0560562
-0.0624655
-0.0701583
-0.0793855
-0.0904585
-0.12003
-0.101987
-0.0668061
-0.0552998
-0.0457071
-0.0377126
-0.0310559
-0.0047616
-0.0105866
-0.0175704
-0.0259534
-0.0360121
-0.0678541
-0.0395685
-0.0104687
-0.000264545
0.00823707
0.0153272
0.0212296
0.0404833
0.0333257
0.0247366
0.0144337
0.00206689
-0.0331972
-0.0253011
0.011919
0.0262623
0.0382118
0.0481708
0.0564756
0.0735877
0.0653744
0.0555211
0.0436939
0.0295011
-0.0103899
0.00802015
0.0509929
0.0630281
0.0730597
0.0814169
0.0883813
0.0973846
0.0917076
0.0848916
0.0767152
0.0669056
0.0329933
0.0475578
0.072723
0.0826991
0.0910133
0.0979421
0.103715
0.109368
0.102499
0.0942625
0.0843866
0.0725479
0.0439305
0.0126103
0.0335641
0.0406537
0.0466395
0.0517592
0.0562063
-0.0413144
-0.0440429
-0.0467731
-0.0495033
-0.052233
-0.0611848
-0.149593
-0.145058
-0.144374
-0.143691
-0.143009
-0.142325
-0.243619
-0.243696
-0.243772
-0.243849
-0.243928
-0.245955
-0.345348
-0.344581
-0.344581
-0.344581
-0.344581
-0.344581
-0.445019
-0.445019
-0.44502
-0.445019
-0.445019
-0.445271
-0.54521
-0.545186
-0.545186
-0.545186
-0.545186
-0.545186
-0.645623
-0.645623
-0.645623
-0.645623
-0.645623
-0.645448
-0.746621
-0.747121
-0.747121
-0.747121
-0.747121
-0.747121
-0.850794
-0.850794
-0.850794
-0.850794
-0.850794
-0.849654
-0.956309
-0.957484
-0.957507
-0.957531
-0.957554
-0.95758
-0.953904
-0.953904
-0.953904
-0.953905
-0.953905
-0.952405
-1.0616
-1.06195
-1.06202
-1.06208
-1.06215
-1.06222
-1.05448
-1.05448
-1.05448
-1.05448
-1.05448
-1.05329
-1.04649
-1.04765
-1.04765
-1.04765
-1.04765
-1.04765
-1.04274
-1.04274
-1.04274
-1.04274
-1.04274
-1.04216
-1.03936
-1.03962
-1.03962
-1.03962
-1.03962
-1.03962
-1.03781
-1.03781
-1.03781
-1.03781
-1.03781
-1.03771
-1.03679
-1.03682
-1.03682
-1.03682
-1.03682
-1.03682
-1.03632
-1.03632
-1.03632
-1.03632
-1.03632
-1.03632
-1.03611
-1.03609
-1.03609
-1.03609
-1.03609
-1.03608
-1.03598
-1.03599
-1.03599
-1.03599
-1.036
-1.03603
-1.03607
-1.03605
-1.03604
-1.03603
-1.03603
-1.03603
-1.03626
-1.03626
-1.03626
-1.03626
-1.03625
-1.03625
-1.03658
-1.03664
-1.03664
-1.03664
-1.03664
-1.03664
-1.0373
-1.0373
-1.03731
-1.0373
-1.03731
-1.03717
-1.03813
-1.03838
-1.03838
-1.03837
-1.03838
-1.03837
-1.03999
-1.04
-1.03999
-1.03999
-1.03999
-1.03957
-1.04152
-1.0422
-1.0422
-1.0422
-1.0422
-1.0422
-1.04498
-1.04498
-1.04498
-1.04499
-1.04498
-1.04384
-1.04723
-1.04852
-1.04852
-1.04852
-1.04853
-1.04851
-1.13707
-1.13706
-1.13706
-1.13706
-1.13706
-1.1381
-1.13576
-1.13333
-1.13223
-1.13131
-1.13055
-1.12991
-1.12962
-1.1296
-1.12961
-1.1296
-1.12961
-1.13021
-1.13021
-1.13022
-1.13022
-1.13023
-1.13097
-1.13095
-1.13095
-1.13094
-1.13093
-1.1318
-1.13181
-1.13182
-1.13184
-1.13185
-1.13292
-1.1329
-1.13287
-1.13285
-1.13284
-1.13495
-1.13495
-1.13496
-1.13498
-1.13499
-1.22015
-1.22013
-1.22012
-1.22011
-1.2201
-1.2067
-1.20672
-1.20675
-1.20676
-1.20679
-1.20238
-1.20235
-1.20234
-1.20233
-1.20231
-1.19865
-1.19866
-1.19867
-1.19867
-1.19869
-1.19562
-1.19561
-1.19561
-1.19561
-1.1956
-1.19305
-1.19305
-1.19305
-1.19306
-1.19306
-1.19334
-1.19593
-1.19904
-1.20276
-1.20723
-1.22254
-1.22526
-1.20711
-1.20278
-1.19917
-1.19616
-1.19365
-1.13048
-1.13113
-1.13191
-1.13284
-1.13396
-1.13687
-1.13743
-1.13421
-1.13313
-1.13223
-1.13148
-1.13085
-1.06638
-1.06495
-1.06324
-1.06118
-1.05871
-1.05288
-0.965329
-0.989184
-0.994794
-0.999464
-1.00336
-1.0066
-1.00706
-1.00392
-1.00014
-0.995612
-0.990177
-0.96715
-0.907494
-0.931558
-0.938839
-0.944906
-0.94996
-0.954167
-0.910583
-0.905133
-0.898595
-0.890746
-0.881332
-0.852491
-0.807829
-0.842667
-0.854919
-0.865127
-0.873634
-0.880723
-0.865381
-0.857035
-0.847016
-0.834994
-0.820567
-0.785359
-0.784271
-0.819618
-0.834353
-0.846629
-0.856859
-0.865381
-0.880724
-0.873289
-0.864374
-0.853668
-0.840823
-0.80554
-0.80502
-0.839321
-0.8526
-0.86366
-0.872877
-0.880556
-0.880316
-0.87212
-0.862282
-0.850473
-0.8363
-0.802514
-0.798762
-0.796099
-0.79594
-0.795804
-0.795699
-0.795603
-0.834187
-0.848993
-0.861333
-0.871616
-0.880182
-0.880179
-0.87162
-0.861342
-0.849008
-0.83421
-0.834234
-0.849023
-0.861351
-0.87162
-0.880173
-0.880166
-0.871619
-0.861359
-0.849044
-0.834266
-0.834299
-0.849066
-0.861369
-0.871621
-0.880158
-0.880203
-0.871702
-0.861496
-0.849247
-0.834546
-0.87137
-0.883657
-0.893901
-0.902429
-0.909537
-0.909212
-0.902077
-0.893522
-0.883242
-0.870915
-0.870861
-0.883209
-0.893502
-0.902074
-0.909215
-0.909214
-0.902065
-0.893478
-0.883184
-0.870821
-0.870782
-0.883159
-0.893464
-0.902058
-0.909215
-0.909216
-0.902051
-0.893456
-0.883139
-0.870757
-0.837145
-0.837269
-0.837413
-0.837582
-0.83779
-0.840829