/*--------------------------------*- C++ -*----------------------------------*\
| =========                 |                                                 |
| \\      /  F ield         | OpenFOAM: The Open Source CFD Toolbox           |
|  \\    /   O peration     | Version:  2212                                  |
|   \\  /    A nd           | Website:  www.openfoam.com                      |
|    \\/     M anipulation  |                                                 |
\*---------------------------------------------------------------------------*/
FoamFile
{
    version     2.0;
    format      ascii;
    arch        "LSB;label=32;scalar=64";
    class       volScalarField;
    location    "90";
    object      T;
}
// * * * * * * * * * * * * * * * * * * * * * * * * * * * * * * * * * * * * * //

dimensions      [0 0 0 1 0 0 0];

internalField   nonuniform List<scalar> 
248319
(
300.015
300.008
300.003
300.002
300.002
300.001
300.001
300.001
300.001
300.002
300.003
300.005
300.011
300.013
300.006
300.004
300.003
300.002
300.002
300.004
300.004
300.005
300.006
300.008
300.016
300.01
300.005
300.004
300.003
300.003
300.003
300.002
300.002
300.002
300.003
300.004
300.009
300.012
300.005
300.004
300.003
300.003
300.003
300.002
300.002
300.002
300.004
300.006
300.013
300.013
300.005
300.003
300.002
300.001
300.001
300.001
300.001
300.001
300.002
300.004
300.011
300.009
300.004
300.002
300.001
300.001
300.001
300.001
300.001
300.002
300.002
300.004
300.013
300.012
300.004
300.003
300.002
300.001
300.001
300.002
300.002
300.003
300.004
300.006
300.016
300.019
300.01
300.007
300.006
300.005
300.004
300.006
300.006
300.007
300.008
300.01
300.017
300.012
300.006
300.005
300.005
300.005
300.005
300.005
300.004
300.004
300.005
300.006
300.011
300.011
300.006
300.004
300.003
300.003
300.003
300.002
300.002
300.003
300.005
300.008
300.012
300.014
300.008
300.005
300.003
300.002
300.002
300.002
300.002
300.003
300.005
300.009
300.019
300.014
300.005
300.003
300.002
300.001
300.001
300.001
300.001
300.001
300.002
300.004
300.011
300.01
300.006
300.004
300.002
300.002
300.001
300.001
300.001
300.002
300.003
300.005
300.011
300.035
300.016
300.01
300.007
300.005
300.005
300.002
300.003
300.003
300.005
300.008
300.023
300.018
300.007
300.004
300.003
300.002
300.002
300.002
300.002
300.003
300.005
300.008
300.02
300.023
300.014
300.01
300.007
300.006
300.005
300.007
300.008
300.009
300.011
300.014
300.021
300.018
300.013
300.01
300.008
300.007
300.007
300.006
300.006
300.006
300.008
300.009
300.015
300.013
300.008
300.007
300.006
300.005
300.005
300.004
300.004
300.004
300.004
300.005
300.009
300.009
300.005
300.003
300.003
300.003
300.003
300.002
300.002
300.003
300.005
300.007
300.011
300.013
300.008
300.005
300.003
300.002
300.002
300.002
300.002
300.003
300.006
300.01
300.018
300.029
300.015
300.008
300.004
300.003
300.002
300.002
300.002
300.003
300.006
300.012
300.026
300.016
300.005
300.002
300.001
300.001
300.001
300.001
300.001
300.001
300.002
300.003
300.01
300.01
300.005
300.003
300.002
300.002
300.001
300.005
300.006
300.008
300.012
300.019
300.052
300.044
300.024
300.014
300.009
300.007
300.006
300.009
300.01
300.013
300.021
300.034
300.066
300.053
300.024
300.015
300.01
300.007
300.007
300.005
300.006
300.008
300.011
300.017
300.046
300.028
300.011
300.007
300.005
300.003
300.003
300.003
300.003
300.004
300.006
300.01
300.025
300.027
300.016
300.012
300.009
300.007
300.006
300.009
300.009
300.011
300.014
300.018
300.024
300.02
300.015
300.012
300.01
300.008
300.008
300.008
300.008
300.009
300.01
300.012
300.015
300.014
300.01
300.008
300.007
300.006
300.006
300.006
300.006
300.006
300.007
300.009
300.012
300.01
300.007
300.006
300.005
300.005
300.005
300.004
300.004
300.004
300.004
300.004
300.008
300.008
300.004
300.003
300.003
300.002
300.002
300.002
300.002
300.003
300.004
300.006
300.009
300.012
300.007
300.004
300.003
300.002
300.002
300.002
300.002
300.003
300.005
300.01
300.018
300.031
300.016
300.008
300.004
300.003
300.002
300.005
300.005
300.008
300.016
300.029
300.055
300.046
300.024
300.012
300.007
300.004
300.004
300.002
300.003
300.004
300.008
300.016
300.034
300.016
300.004
300.002
300.001
300.001
300.001
300.001
300.001
300.001
300.001
300.003
300.009
300.009
300.004
300.003
300.002
300.002
300.002
300.005
300.006
300.007
300.01
300.017
300.054
300.098
300.029
300.017
300.011
300.009
300.008
300.008
300.009
300.011
300.017
300.03
300.083
300.108
300.042
300.024
300.015
300.012
300.011
300.01
300.011
300.014
300.022
300.036
300.078
300.058
300.024
300.015
300.01
300.008
300.007
300.006
300.007
300.009
300.013
300.02
300.051
300.034
300.014
300.009
300.006
300.004
300.004
300.003
300.004
300.005
300.007
300.012
300.03
300.03
300.019
300.014
300.01
300.008
300.007
300.01
300.01
300.013
300.016
300.02
300.026
300.021
300.016
300.014
300.011
300.01
300.01
300.009
300.009
300.01
300.011
300.013
300.016
300.012
300.01
300.009
300.008
300.008
300.008
300.007
300.007
300.007
300.008
300.009
300.012
300.009
300.007
300.006
300.006
300.006
300.006
300.005
300.005
300.005
300.006
300.007
300.009
300.009
300.006
300.005
300.004
300.004
300.004
300.003
300.003
300.003
300.003
300.004
300.007
300.007
300.004
300.003
300.002
300.002
300.002
300.002
300.002
300.002
300.004
300.005
300.008
300.011
300.007
300.004
300.002
300.002
300.001
300.002
300.002
300.003
300.005
300.01
300.017
300.032
300.017
300.009
300.005
300.003
300.002
300.005
300.006
300.009
300.018
300.034
300.063
300.118
300.065
300.036
300.021
300.014
300.012
300.01
300.011
300.017
300.029
300.052
300.093
300.069
300.037
300.02
300.012
300.008
300.007
300.004
300.005
300.007
300.011
300.021
300.042
300.017
300.006
300.003
300.002
300.002
300.002
300.001
300.001
300.001
300.001
300.003
300.008
300.01
300.004
300.003
300.003
300.002
300.002
300.007
300.008
300.009
300.012
300.019
300.056
300.11
300.037
300.023
300.016
300.013
300.013
300.022
300.024
300.029
300.04
300.061
300.159
300.138
300.048
300.029
300.019
300.015
300.014
300.028
300.03
300.038
300.052
300.077
300.178
300.133
300.066
300.044
300.03
300.023
300.021
300.016
300.018
300.024
300.034
300.05
300.088
300.063
300.029
300.02
300.014
300.011
300.01
300.007
300.008
300.01
300.015
300.023
300.057
300.04
300.017
300.01
300.007
300.005
300.005
300.004
300.004
300.006
300.009
300.014
300.034
300.033
300.022
300.016
300.012
300.009
300.008
300.011
300.012
300.014
300.018
300.022
300.028
300.022
300.018
300.015
300.013
300.011
300.011
300.011
300.01
300.011
300.012
300.014
300.016
300.012
300.01
300.01
300.009
300.009
300.01
300.009
300.008
300.008
300.007
300.008
300.008
300.009
300.007
300.007
300.007
300.007
300.007
300.007
300.006
300.005
300.005
300.006
300.006
300.007
300.006
300.005
300.005
300.005
300.005
300.005
300.004
300.004
300.005
300.006
300.007
300.007
300.005
300.004
300.004
300.004
300.004
300.003
300.003
300.003
300.003
300.003
300.006
300.006
300.003
300.002
300.002
300.002
300.002
300.001
300.002
300.002
300.003
300.005
300.007
300.009
300.006
300.004
300.002
300.001
300.001
300.001
300.002
300.003
300.005
300.009
300.017
300.034
300.018
300.009
300.005
300.003
300.002
300.006
300.006
300.01
300.02
300.038
300.072
300.144
300.079
300.044
300.025
300.017
300.015
300.037
300.04
300.055
300.087
300.146
300.249
300.192
300.113
300.068
300.043
300.031
300.028
300.022
300.024
300.032
300.051
300.085
300.143
300.099
300.056
300.033
300.021
300.016
300.015
300.008
300.008
300.01
300.016
300.027
300.057
300.02
300.011
300.007
300.006
300.005
300.005
300.004
300.004
300.005
300.007
300.011
300.019
300.036
300.019
300.013
300.01
300.009
300.009
300.021
300.022
300.027
300.038
300.057
300.104
300.176
300.097
300.064
300.045
300.037
300.035
300.05
300.054
300.066
300.091
300.135
300.245
300.311
300.176
300.121
300.089
300.073
300.068
300.036
300.039
300.047
300.063
300.091
300.207
300.256
300.126
300.09
300.068
300.056
300.053
300.046
300.049
300.06
300.08
300.11
300.217
300.158
300.095
300.069
300.051
300.041
300.038
300.027
300.029
300.037
300.05
300.067
300.098
300.068
300.037
300.026
300.019
300.015
300.014
300.009
300.01
300.013
300.018
300.027
300.062
300.046
300.02
300.013
300.009
300.007
300.006
300.005
300.005
300.007
300.01
300.017
300.039
300.036
300.025
300.018
300.014
300.011
300.01
300.013
300.014
300.016
300.02
300.024
300.03
300.023
300.019
300.016
300.014
300.013
300.013
300.012
300.012
300.012
300.013
300.015
300.016
300.012
300.011
300.01
300.01
300.011
300.012
300.011
300.01
300.009
300.008
300.008
300.008
300.005
300.006
300.006
300.007
300.009
300.011
300.008
300.007
300.006
300.006
300.005
300.006
300.004
300.004
300.004
300.005
300.006
300.008
300.006
300.005
300.004
300.004
300.004
300.005
300.005
300.004
300.004
300.004
300.004
300.005
300.004
300.004
300.004
300.004
300.005
300.006
300.006
300.004
300.003
300.003
300.003
300.003
300.003
300.002
300.002
300.003
300.003
300.005
300.005
300.003
300.002
300.002
300.002
300.002
300.001
300.001
300.002
300.003
300.004
300.006
300.009
300.005
300.003
300.002
300.001
300.001
300.001
300.002
300.003
300.005
300.009
300.016
300.037
300.019
300.01
300.005
300.003
300.002
300.006
300.007
300.012
300.022
300.043
300.084
300.177
300.095
300.053
300.03
300.02
300.018
300.049
300.053
300.07
300.109
300.181
300.314
300.448
300.284
300.187
300.129
300.101
300.094
300.068
300.074
300.095
300.142
300.22
300.352
300.267
300.166
300.106
300.071
300.054
300.05
300.036
300.039
300.05
300.075
300.118
300.191
300.123
300.074
300.047
300.032
300.026
300.024
300.013
300.014
300.016
300.023
300.036
300.065
300.021
300.011
300.008
300.007
300.007
300.007
300.015
300.015
300.017
300.021
300.029
300.059
300.05
300.029
300.02
300.015
300.014
300.013
300.028
300.03
300.036
300.05
300.076
300.137
300.227
300.118
300.078
300.056
300.046
300.043
300.06
300.064
300.078
300.107
300.156
300.312
300.392
300.204
300.144
300.107
300.088
300.083
300.115
300.122
300.146
300.193
300.264
300.47
300.375
300.223
300.16
300.12
300.099
300.093
300.124
300.131
300.157
300.206
300.279
300.439
300.304
300.163
300.12
300.093
300.077
300.072
300.066
300.071
300.085
300.11
300.145
300.255
300.181
300.124
300.096
300.073
300.06
300.055
300.039
300.042
300.051
300.066
300.084
300.106
300.073
300.046
300.034
300.025
300.02
300.018
300.011
300.012
300.016
300.022
300.031
300.067
300.053
300.024
300.016
300.011
300.008
300.007
300.006
300.006
300.008
300.012
300.02
300.044
300.04
300.028
300.021
300.016
300.012
300.011
300.015
300.016
300.018
300.022
300.026
300.032
300.023
300.021
300.018
300.016
300.015
300.015
300.014
300.014
300.014
300.014
300.015
300.017
300.011
300.011
300.011
300.012
300.012
300.014
300.014
300.012
300.01
300.009
300.008
300.008
300.005
300.006
300.006
300.008
300.011
300.014
300.013
300.01
300.007
300.005
300.004
300.003
300.004
300.004
300.004
300.006
300.008
300.01
300.01
300.007
300.005
300.003
300.003
300.003
300.003
300.003
300.003
300.004
300.005
300.007
300.006
300.004
300.004
300.003
300.003
300.003
300.004
300.003
300.003
300.003
300.004
300.005
300.004
300.003
300.003
300.003
300.004
300.005
300.005
300.003
300.003
300.003
300.003
300.003
300.002
300.002
300.002
300.002
300.002
300.004
300.004
300.002
300.002
300.001
300.001
300.002
300.001
300.001
300.002
300.002
300.004
300.005
300.008
300.005
300.003
300.002
300.001
300.001
300.001
300.001
300.003
300.005
300.009
300.017
300.04
300.02
300.01
300.005
300.003
300.002
300.006
300.008
300.013
300.025
300.049
300.098
300.214
300.113
300.062
300.035
300.025
300.022
300.07
300.075
300.096
300.14
300.224
300.386
300.548
300.386
300.272
300.195
300.153
300.142
300.211
300.228
300.285
300.382
300.504
300.644
300.546
300.382
300.271
300.193
300.154
300.143
300.105
300.112
300.14
300.197
300.289
300.434
300.33
300.215
300.145
300.101
300.081
300.075
300.053
300.056
300.07
300.1
300.15
300.235
300.152
300.086
300.056
300.04
300.034
300.033
300.022
300.023
300.025
300.031
300.043
300.081
300.067
300.044
300.031
300.023
300.02
300.019
300.027
300.029
300.034
300.047
300.073
300.135
300.246
300.134
300.086
300.06
300.049
300.046
300.03
300.032
300.037
300.049
300.072
300.151
300.242
300.111
300.076
300.056
300.047
300.045
300.063
300.066
300.079
300.105
300.15
300.327
300.409
300.199
300.142
300.109
300.092
300.087
300.119
300.126
300.148
300.189
300.256
300.49
300.574
300.322
300.242
300.191
300.163
300.154
300.15
300.159
300.19
300.247
300.33
300.546
300.626
300.405
300.306
300.236
300.199
300.187
300.156
300.165
300.197
300.256
300.34
300.502
300.352
300.203
300.153
300.119
300.1
300.094
300.087
300.093
300.111
300.141
300.182
300.294
300.202
300.155
300.123
300.097
300.08
300.075
300.05
300.054
300.065
300.083
300.1
300.113
300.078
300.056
300.043
300.032
300.026
300.024
300.014
300.015
300.019
300.026
300.037
300.073
300.059
300.029
300.019
300.013
300.01
300.009
300.007
300.007
300.01
300.015
300.023
300.049
300.043
300.031
300.023
300.018
300.014
300.013
300.017
300.018
300.02
300.024
300.028
300.033
300.024
300.022
300.02
300.018
300.017
300.017
300.017
300.016
300.015
300.016
300.016
300.017
300.012
300.012
300.012
300.013
300.015
300.017
300.017
300.014
300.011
300.009
300.008
300.008
300.005
300.006
300.007
300.01
300.013
300.017
300.017
300.012
300.008
300.005
300.004
300.003
300.002
300.003
300.004
300.007
300.011
300.016
300.012
300.008
300.005
300.003
300.003
300.002
300.002
300.002
300.003
300.004
300.008
300.012
300.009
300.006
300.004
300.002
300.002
300.002
300.002
300.002
300.002
300.003
300.005
300.007
300.005
300.004
300.003
300.002
300.002
300.003
300.003
300.003
300.002
300.003
300.003
300.004
300.003
300.003
300.002
300.003
300.003
300.004
300.004
300.003
300.002
300.002
300.002
300.003
300.002
300.002
300.002
300.002
300.002
300.004
300.004
300.002
300.002
300.001
300.001
300.001
300.001
300.001
300.001
300.002
300.003
300.005
300.008
300.005
300.003
300.002
300.001
300.001
300.001
300.001
300.002
300.005
300.009
300.017
300.045
300.022
300.011
300.005
300.003
300.002
300.007
300.008
300.013
300.027
300.056
300.114
300.253
300.131
300.07
300.04
300.029
300.027
300.089
300.096
300.122
300.174
300.269
300.457
300.626
300.455
300.329
300.238
300.186
300.17
300.234
300.247
300.307
300.409
300.534
300.669
300.738
300.564
300.444
300.389
300.473
300.584
303.238
309.283
328.164
374.124
451.054
446.312
364.143
320.202
305.708
301.985
300.818
302.375
311.523
350.494
439.951
431.212
338.241
306.572
301.174
300.554
300.621
300.954
304.544
330.403
422.67
417.442
326.872
303.954
301.029
300.781
301.167
301.435
304.712
328.829
420.071
420.386
329.034
304.786
301.468
301.184
301.158
301.128
301.154
301.401
304.327
327.235
418.533
416.801
325.449
303.613
301.038
300.836
300.68
300.953
304.138
329.019
422.916
433.186
337.417
306.126
301.161
300.61
301.038
302.684
312.074
353.124
445.878
456.198
373.068
324.927
308.317
303.5
306.465
314.905
337.193
387.366
461.6
460.639
386.46
334.82
312.138
304.283
302.178
306.628
323.408
372.124
454.847
443.954
351.723
311.657
302.447
300.858
300.628
301.184
306.154
336.993
431.937
422.879
329.374
304.313
301.018
300.719
300.887
301.102
303.761
325.891
417.32
417.078
326.13
304.154
301.473
301.232
301.172
300.837
300.656
300.519
300.43
300.451
300.576
300.273
300.292
300.362
300.474
300.61
300.762
300.647
300.495
300.373
300.279
300.224
300.208
300.152
300.162
300.201
300.274
300.379
300.522
300.4
300.277
300.196
300.144
300.118
300.111
300.076
300.08
300.093
300.124
300.18
300.286
300.189
300.111
300.083
300.066
300.058
300.056
300.051
300.055
300.066
300.087
300.12
300.172
300.089
300.044
300.033
300.027
300.025
300.025
300.034
300.036
300.041
300.053
300.077
300.177
300.163
300.078
300.053
300.039
300.033
300.032
300.051
300.054
300.065
300.09
300.134
300.289
300.42
300.192
300.128
300.092
300.075
300.071
300.067
300.071
300.088
300.125
300.193
300.363
300.481
300.244
300.159
300.113
300.092
300.087
300.113
300.12
300.145
300.198
300.295
300.597
300.714
300.352
300.244
300.183
300.152
300.143
300.18
300.191
300.227
300.299
300.419
300.831
300.949
300.499
300.36
300.274
300.229
300.216
300.193
300.203
300.236
300.298
300.39
300.657
300.746
300.464
300.357
300.283
300.242
300.229
300.228
300.241
300.286
300.369
300.484
300.707
300.567
300.406
300.309
300.239
300.2
300.189
300.117
300.124
300.147
300.187
300.245
300.402
300.333
300.221
300.173
300.137
300.115
300.108
300.095
300.101
300.121
300.151
300.184
300.222
300.119
300.115
300.098
300.08
300.067
300.062
300.031
300.033
300.04
300.053
300.067
300.082
300.079
300.044
300.032
300.023
300.018
300.017
300.011
300.012
300.016
300.023
300.034
300.065
300.054
300.027
300.017
300.012
300.009
300.008
300.015
300.016
300.02
300.026
300.034
300.046
300.035
300.031
300.027
300.023
300.02
300.019
300.02
300.019
300.02
300.022
300.024
300.026
300.018
300.017
300.017
300.017
300.018
300.02
300.02
300.017
300.015
300.013
300.013
300.012
300.008
300.009
300.01
300.013
300.017
300.021
300.021
300.016
300.011
300.008
300.006
300.005
300.003
300.004
300.006
300.009
300.015
300.021
300.02
300.014
300.008
300.005
300.003
300.002
300.002
300.002
300.004
300.007
300.012
300.019
300.015
300.009
300.005
300.003
300.002
300.002
300.001
300.002
300.003
300.005
300.009
300.014
300.01
300.007
300.004
300.002
300.001
300.001
300.001
300.001
300.002
300.003
300.005
300.008
300.006
300.004
300.003
300.002
300.002
300.001
300.002
300.002
300.002
300.002
300.003
300.005
300.004
300.003
300.002
300.002
300.002
300.002
300.003
300.002
300.002
300.002
300.002
300.003
300.002
300.002
300.002
300.002
300.002
300.003
300.003
300.002
300.002
300.002
300.002
300.002
300.001
300.001
300.001
300.001
300.002
300.003
300.004
300.003
300.002
300.001
300.001
300.001
300.001
300.001
300.001
300.003
300.004
300.007
300.018
300.009
300.005
300.002
300.001
300.001
300.002
300.003
300.005
300.012
300.025
300.051
300.131
300.062
300.029
300.014
300.008
300.006
300.027
300.03
300.043
300.076
300.145
300.288
300.512
300.304
300.192
300.131
300.1
300.091
300.179
300.197
300.254
300.349
300.48
300.668
300.733
300.774
301.073
304.69
331.371
426.384
437.424
443.483
446.306
443.551
443.186
363.611
361.639
358.426
349.396
339.655
306.395
309.988
314.451
319.711
322.798
307.19
305.332
302.847
301.573
301.132
300.626
300.582
300.847
301.664
302.298
300.481
300.427
300.376
300.431
300.549
300.567
300.466
300.377
300.394
300.412
301.59
301.436
301.093
301.289
301.072
303.511
304.618
303.971
304.788
305.121
317.043
317.497
317.984
318.698
315.108
356.723
363.346
363.241
355.967
352.961
435.623
438.998
448.879
450.465
447.541
439.109
344.001
308.89
301.725
300.811
300.738
301.216
301.198
301.667
307.517
339.8
434.673
420.868
329.096
304.676
301.418
301.179
301.198
301.143
301.517
301.549
302.019
306.698
335.151
426.143
431.693
339.034
307.623
302.168
301.595
301.552
301.464
301.524
301.98
306.48
335.302
428.225
422.593
330.418
305.405
301.994
301.647
301.552
301.665
301.776
302.223
306.421
334.154
426.749
419.898
328.577
304.763
301.586
301.287
301.216
300.855
300.901
301.143
303.951
326.303
416.729
419.001
426.293
437.105
447.877
454.809
377.435
363.431
345.886
333.729
327.863
304.13
305.519
309.905
319.286
328.885
308.765
305.063
302.033
301.091
300.999
300.715
300.599
300.717
301.497
302.567
300.425
300.392
300.413
300.513
300.66
300.617
300.474
300.358
300.284
300.262
300.21
300.227
300.285
300.384
300.509
300.657
300.525
300.386
300.282
300.208
300.168
300.157
300.119
300.126
300.152
300.205
300.284
300.399
300.289
300.197
300.141
300.107
300.091
300.087
300.059
300.06
300.067
300.083
300.11
300.201
300.327
300.149
300.102
300.077
300.065
300.062
300.058
300.061
300.073
300.099
300.148
300.314
300.287
300.154
300.098
300.069
300.056
300.053
300.074
300.079
300.098
300.141
300.226
300.435
300.302
300.129
300.088
300.066
300.056
300.054
300.073
300.077
300.091
300.123
300.181
300.428
300.549
300.228
300.156
300.117
300.098
300.093
300.092
300.098
300.119
300.163
300.242
300.545
300.667
300.294
300.202
300.15
300.125
300.118
300.15
300.158
300.189
300.249
300.352
300.784
300.898
300.419
300.301
300.23
300.193
300.182
300.217
300.23
300.273
300.356
300.49
301.008
301.115
300.565
300.41
300.313
300.262
300.246
300.255
300.27
300.322
300.423
300.585
301.065
301.181
300.677
300.486
300.367
300.305
300.287
300.268
300.282
300.329
300.414
300.537
300.835
300.792
300.568
300.434
300.335
300.281
300.265
300.227
300.24
300.285
300.366
300.475
300.633
300.454
300.29
300.223
300.174
300.147
300.138
300.132
300.139
300.164
300.207
300.26
300.373
300.24
300.213
300.179
300.144
300.121
300.113
300.076
300.08
300.094
300.113
300.127
300.123
300.086
300.077
300.062
300.048
300.039
300.037
300.021
300.023
300.028
300.038
300.052
300.084
300.071
300.039
300.027
300.019
300.015
300.013
300.01
300.011
300.014
300.02
300.031
300.059
300.049
300.038
300.029
300.023
300.018
300.016
300.022
300.023
300.026
300.029
300.033
300.037
300.027
300.025
300.024
300.022
300.022
300.022
300.023
300.021
300.02
300.019
300.019
300.018
300.012
300.013
300.015
300.017
300.02
300.023
300.025
300.02
300.015
300.012
300.009
300.008
300.005
300.007
300.009
300.013
300.019
300.026
300.026
300.018
300.011
300.007
300.005
300.004
300.003
300.003
300.005
300.01
300.017
300.025
300.024
300.015
300.008
300.004
300.002
300.002
300.001
300.002
300.004
300.008
300.014
300.022
300.017
300.011
300.006
300.003
300.002
300.001
300.001
300.002
300.003
300.006
300.01
300.015
300.012
300.008
300.005
300.003
300.002
300.001
300.001
300.001
300.002
300.004
300.006
300.009
300.007
300.005
300.003
300.002
300.001
300.001
300.001
300.001
300.002
300.002
300.004
300.006
300.004
300.003
300.002
300.001
300.001
300.001
300.002
300.002
300.002
300.002
300.002
300.003
300.003
300.002
300.002
300.002
300.002
300.002
300.003
300.002
300.002
300.002
300.002
300.002
300.002
300.001
300.001
300.001
300.002
300.003
300.003
300.002
300.001
300.001
300.001
300.001
300.001
300.001
300.001
300.002
300.003
300.004
300.007
300.004
300.002
300.001
300.001
300.001
300.001
300.001
300.002
300.005
300.01
300.019
300.057
300.026
300.012
300.006
300.003
300.002
300.006
300.008
300.014
300.031
300.068
300.147
300.317
300.154
300.078
300.043
300.028
300.025
300.087
300.096
300.129
300.196
300.317
300.544
300.686
300.483
300.348
300.25
300.19
300.169
300.152
300.173
300.236
300.337
300.476
300.691
300.771
301.424
304.5
317.405
359.206
448.242
453.634
451.945
443.737
430.808
427.945
342.76
346.337
358.365
368.952
370.501
324.738
323.462
317.198
313.194
311.707
303.183
303.508
304.13
306.769
307.53
302.269
301.945
301.117
301.042
300.977
300.338
300.348
300.367
300.497
300.643
301.583
300.895
300.396
300.308
300.277
300.7
300.866
301.34
303.976
306.756
315.774
310.473
304.549
302.846
302.293
309.463
311.096
317
328.32
336.84
381.624
371.887
356.453
342.752
339.686
427.708
430.031
443.558
452.372
457.071
456.108
378.916
334.878
314.853
306.491
301.881
302.345
306.457
313.899
332.325
374.758
453.713
444.538
353.941
314.808
303.855
301.616
301.233
301.72
302.252
305.017
317.171
357.515
446.395
436.696
343.402
309.338
302.352
301.617
301.655
301.598
301.576
301.924
305.989
332.501
422.854
425.344
335.689
307.358
302.523
302.037
302.046
301.904
301.989
302.68
308.46
339.422
429.352
438.815
347.1
310.542
303.049
302.104
301.991
301.85
301.989
302.669
308.373
340.742
433.416
426.147
333.75
306.679
302.662
302.186
302.026
302.259
302.457
303.062
308.025
338.166
430.722
442.185
348.999
311.304
303.768
302.802
302.551
301.824
301.97
302.704
309.051
343.806
438.249
429.684
335.221
306.304
301.831
301.38
301.295
300.896
300.677
300.514
300.397
300.348
300.35
301.883
307.03
324.902
370.881
450.268
445.075
360.737
317.961
304.449
301.219
300.675
302.015
310.243
347.14
437.938
430.122
336.486
306.117
301.145
300.599
300.73
301.064
304.736
331
424.4
423.582
330.212
304.74
301.252
300.943
301.008
301.485
306.468
337.809
434.337
437.741
340.956
307.016
301.343
300.773
300.642
301.511
308.746
346.159
440.392
441.768
352.631
312.6
302.44
300.725
301.132
304.293
317.478
358.381
442.224
444.793
363.348
321.189
305.84
301.53
300.343
300.349
300.406
300.533
300.716
300.954
300.816
300.647
300.498
300.369
300.283
300.253
300.254
300.283
300.37
300.497
300.643
300.795
300.647
300.503
300.384
300.286
300.226
300.207
300.176
300.19
300.235
300.314
300.413
300.531
300.43
300.313
300.237
300.179
300.146
300.137
300.135
300.147
300.185
300.246
300.324
300.419
300.311
300.216
300.162
300.124
300.105
300.1
300.095
300.102
300.125
300.165
300.221
300.299
300.434
300.275
300.183
300.129
300.102
300.095
300.119
300.129
300.164
300.237
300.358
300.574
300.469
300.212
300.143
300.106
300.088
300.083
300.08
300.084
300.102
300.141
300.214
300.462
300.6
300.271
300.18
300.129
300.106
300.1
300.097
300.103
300.128
300.184
300.292
300.58
300.709
300.332
300.209
300.148
300.12
300.112
300.129
300.137
300.167
300.231
300.357
300.819
300.657
300.275
300.192
300.146
300.123
300.117
300.144
300.152
300.18
300.233
300.327
300.761
300.858
300.382
300.275
300.213
300.181
300.171
300.197
300.209
300.246
300.317
300.437
300.95
301.035
300.488
300.355
300.274
300.231
300.218
300.238
300.252
300.3
300.389
300.537
301.114
301.212
300.633
300.459
300.349
300.292
300.275
300.302
300.32
300.384
300.507
300.701
301.307
301.294
300.766
300.547
300.411
300.34
300.319
300.302
300.318
300.372
300.471
300.612
300.929
300.884
300.657
300.501
300.385
300.322
300.304
300.261
300.277
300.329
300.423
300.544
300.703
300.508
300.337
300.26
300.204
300.172
300.162
300.154
300.162
300.192
300.241
300.302
300.415
300.259
300.241
300.207
300.168
300.142
300.133
300.088
300.093
300.108
300.127
300.138
300.129
300.091
300.088
300.072
300.057
300.047
300.044
300.025
300.027
300.034
300.045
300.06
300.091
300.077
300.046
300.032
300.023
300.018
300.016
300.011
300.012
300.016
300.024
300.035
300.064
300.053
300.041
300.033
300.025
300.02
300.018
300.025
300.025
300.028
300.032
300.036
300.04
300.028
300.027
300.026
300.025
300.025
300.026
300.027
300.024
300.022
300.021
300.02
300.019
300.013
300.015
300.017
300.02
300.024
300.028
300.031
300.024
300.018
300.013
300.01
300.008
300.006
300.007
300.011
300.016
300.024
300.032
300.033
300.023
300.014
300.008
300.005
300.004
300.003
300.004
300.006
300.012
300.021
300.031
300.029
300.018
300.01
300.005
300.003
300.002
300.002
300.003
300.005
300.009
300.017
300.026
300.02
300.014
300.009
300.005
300.003
300.001
300.001
300.003
300.004
300.007
300.012
300.017
300.011
300.008
300.005
300.004
300.003
300.002
300.001
300.002
300.003
300.005
300.007
300.01
300.009
300.006
300.004
300.002
300.002
300.001
300.001
300.001
300.002
300.003
300.006
300.008
300.007
300.005
300.003
300.002
300.001
300.001
300.001
300.001
300.001
300.002
300.004
300.005
300.004
300.003
300.002
300.001
300.001
300.001
300.001
300.001
300.001
300.002
300.002
300.003
300.002
300.002
300.001
300.001
300.002
300.002
300.002
300.002
300.001
300.001
300.001
300.002
300.001
300.001
300.001
300.001
300.001
300.002
300.002
300.001
300.001
300.001
300.001
300.001
300.001
300.001
300.001
300.002
300.002
300.003
300.007
300.004
300.002
300.001
300.001
300.001
300.001
300.001
300.002
300.005
300.01
300.021
300.064
300.028
300.013
300.006
300.003
300.002
300.006
300.007
300.014
300.031
300.071
300.162
300.336
300.157
300.077
300.04
300.026
300.023
300.076
300.086
300.119
300.187
300.311
300.557
300.55
300.284
300.166
300.102
300.073
300.064
300.13
300.149
300.21
300.344
300.558
300.81
300.75
300.484
300.292
300.176
300.124
300.109
300.138
300.194
300.411
301.354
303.214
305.051
307.77
304.067
301.613
300.483
300.222
300.172
300.329
300.39
300.713
302.443
306.308
318.689
308.559
302.742
301.394
301.371
306.635
305.884
308.411
317.71
331.523
355.754
340.129
328.669
324.437
327.684
380.178
374.607
379.33
388.495
399.73
465.697
461.947
457.698
455.036
457.988
459.065
453.095
449.349
450.554
455.011
372.779
366.164
365.063
371.362
382.573
330.188
323.527
320.8
322.098
326.232
313.631
308.482
306.202
306.227
308.029
301.934
301.692
302.187
304.587
309.998
305.45
302.042
300.806
300.538
300.526
300.371
300.397
300.629
301.505
303.725
311.391
317.19
330.91
336.007
348.29
387.722
460.607
464.568
398.698
363.357
350.841
344.355
324.036
318.388
341.102
359.377
385.876
423.56
473.877
463.954
398.496
356.336
332.157
318.67
306.331
306.532
320.327
334.162
358.911
401.649
465.761
455.462
377.901
334.925
315.702
307.689
303.016
303.75
309.106
317.823
337.931
381.322
457.163
448.21
361.338
320.147
306.697
303.142
302.27
302.124
302.103
303.203
311.18
346.689
438.713
439.51
348.418
312.608
304.102
302.732
302.677
302.541
302.554
303.136
308.261
337.166
426.547
430.1
340.671
309.357
303.324
302.518
302.344
302.546
302.712
303.77
311.513
348.346
439.533
434.235
342.089
309.361
303.394
302.584
302.333
302.631
302.863
303.458
307.764
335.478
427.517
431.565
339.667
309.248
304.084
303.37
303.064
303.522
303.881
304.949
312.616
350.247
442.513
449.611
360.365
316.753
306.058
304.454
304.114
302.918
303.185
304.746
315.545
359.796
449.882
444.643
351.943
311.877
303.286
302.189
302.051
301.418
301.49
302.121
307.966
341.278
436.255
438.679
344.583
309.003
302.334
301.602
301.558
300.989
300.715
300.521
300.384
300.313
300.296
300.866
303.359
313.478
347.368
431.013
427.146
344.029
311.681
302.691
300.719
300.58
301.882
309.894
343.464
429.575
433.35
342.809
308.217
301.395
300.597
300.759
301.321
307.164
340.975
434.6
435.805
340.339
307.139
301.581
301.04
301.203
302.53
311.472
350.275
443.563
442.274
351.665
312.724
302.779
301.001
300.621
301.795
310.73
348.33
438.602
428.736
341.447
309.414
301.809
300.55
300.561
301.957
308.849
336.88
420.642
422.235
337.659
309.23
302.131
300.592
300.284
300.306
300.387
300.541
300.774
301.1
301.112
300.757
300.537
300.385
300.292
300.261
300.253
300.278
300.36
300.49
300.658
300.916
300.784
300.608
300.464
300.345
300.268
300.243
300.201
300.215
300.267
300.358
300.477
300.642
300.534
300.363
300.28
300.217
300.18
300.168
300.171
300.189
300.241
300.318
300.415
300.534
300.698
300.459
300.32
300.226
300.175
300.161