/*--------------------------------*- C++ -*----------------------------------*\
| =========                 |                                                 |
| \\      /  F ield         | OpenFOAM: The Open Source CFD Toolbox           |
|  \\    /   O peration     | Version:  2212                                  |
|   \\  /    A nd           | Website:  www.openfoam.com                      |
|    \\/     M anipulation  |                                                 |
\*---------------------------------------------------------------------------*/
FoamFile
{
    version     2.0;
    format      ascii;
    arch        "LSB;label=32;scalar=64";
    class       volScalarField;
    location    "360";
    object      p;
}
// * * * * * * * * * * * * * * * * * * * * * * * * * * * * * * * * * * * * * //

dimensions      [0 2 -2 0 0 0 0];

internalField   nonuniform List<scalar> 
248319
(
0
0.0192838
0.0402737
0.0499156
0.0579553
0.064658
0.0702517
0.109364
0.103299
0.0960253
0.0873029
0.0768435
0.0510535
0.0498417
0.0761444
0.0872779
0.0965743
0.104333
0.110803
0.0812659
0.076396
0.0706076
0.0636798
0.0553537
0.0331011
0.0137263
0.0280132
0.0342258
0.0395256
0.0440902
0.0480639
0.0626257
0.0577879
0.0519902
0.0450514
0.0367429
0.0196841
-0.0539484
-0.0471921
-0.0434474
-0.0403238
-0.0377031
-0.0355272
-0.021226
-0.0246937
-0.0288522
-0.03383
-0.0397955
-0.0507578
-0.0555436
-0.0402159
-0.0334735
-0.0278584
-0.0231779
-0.0192613
0.0634687
0.0574292
0.0501807
0.0414896
0.0310681
0.0005442
0.0309105
0.059314
0.0692865
0.077601
0.0845289
0.0903081
0.100136
0.0944895
0.0877144
0.0795872
0.0698434
0.035902
0.0499513
0.0749747
0.0847379
0.0928752
0.0996591
0.105314
0.109529
0.103006
0.0951845
0.0858079
0.0745683
0.0473146
0.0190803
0.0397527
0.0463799
0.0519062
0.0565891
0.0606379
-0.0356253
-0.0383559
-0.0410864
-0.0438149
-0.0465455
-0.0535703
-0.0514962
-0.0438469
-0.0414579
-0.0392173
-0.0370791
-0.0350145
-0.140377
-0.140787
-0.141177
-0.141547
-0.141886
-0.145263
-0.144828
-0.141951
-0.140972
-0.140158
-0.139476
-0.138904
-0.132513
-0.13379
-0.135336
-0.137174
-0.139384
-0.144443
-0.145907
-0.139377
-0.136703
-0.134475
-0.132605
-0.131064
-0.133982
-0.13562
-0.137598
-0.139958
-0.142803
-0.150189
-0.0695743
-0.052571
-0.0457502
-0.0400644
-0.0353312
-0.0313688
0.0473201
0.0406997
0.032759
0.023228
0.0118013
-0.0194604
-0.00916048
0.0315405
0.0452771
0.0567306
0.0662815
0.074244
0.0901751
0.0833698
0.0752088
0.0654172
0.0536739
0.0104125
0.00965104
0.0523103
0.0641483
0.0740151
0.0822385
0.0890947
0.0978764
0.0922952
0.0855982
0.0775613
0.0679191
0.0344766
0.0489412
0.0735192
0.0833177
0.0914818
0.0982851
0.103952
0.109474
0.10278
0.0947526
0.0851297
0.073593
0.0456338
0.0147855
0.0354121
0.0421978
0.0479108
0.0527925
0.0570389
-0.0392367
-0.041953
-0.0446711
-0.0473895
-0.0501107
-0.0586951
-0.147628
-0.143319
-0.1426
-0.141881
-0.141163
-0.140445
-0.139439
-0.140143
-0.140843
-0.141542
-0.142242
-0.14619
-0.244009
-0.24236
-0.242286
-0.242212
-0.242139
-0.242065
-0.242964
-0.242952
-0.242919
-0.242859
-0.242762
-0.243761
-0.243304
-0.2424
-0.242275
-0.242168
-0.242084
-0.242016
-0.238682
-0.239004
-0.239385
-0.239851
-0.240402
-0.242616
-0.242871
-0.239817
-0.239097
-0.238494
-0.237995
-0.237569
-0.238124
-0.238592
-0.239156
-0.239824
-0.240625
-0.244232
-0.245659
-0.241497
-0.24052
-0.239711
-0.239027
-0.238468
-0.136206
-0.13805
-0.140268
-0.142924
-0.146112
-0.154312
-0.0773802
-0.0596629
-0.0525085
-0.0465429
-0.0415777
-0.0374313
0.0342311
0.0274537
0.0193197
0.00955526
-0.00214683
-0.0328337
-0.0252802
0.0126358
0.0266675
0.0383668
0.0481204
0.0562481
0.0568194
0.0485517
0.0386286
0.0267246
0.0124438
-0.0247359
-0.00913746
0.0306812
0.0447028
0.0563893
0.0661316
0.0742527
0.0739217
0.0657199
0.0558789
0.044073
0.0299035
-0.00976845
0.00871668
0.0514038
0.0634035
0.0734009
0.0817334
0.0886782
0.09757
0.0919106
0.0851214
0.0769728
0.0671963
0.0335502
0.0480691
0.0729819
0.0829103
0.0911834
0.0980787
0.103822
0.109422
0.102616
0.0944534
0.0846678
0.072935
0.0445301
0.0132888
0.0339969
0.0409698
0.0468566
0.0518967
0.0562836
-0.0407198
-0.0434432
-0.046166
-0.048889
-0.0516136
-0.0604004
-0.148691
-0.144134
-0.143458
-0.142782
-0.142107
-0.141431
-0.242725
-0.242801
-0.242877
-0.242955
-0.243032
-0.245122
-0.244499
-0.242474
-0.242401
-0.242329
-0.242257
-0.242183
-0.343439
-0.343437
-0.343435
-0.343434
-0.343432
-0.344214
-0.343976
-0.343408
-0.343429
-0.343449
-0.343471
-0.343491
-0.344219
-0.344167
-0.344103
-0.344026
-0.343931
-0.344022
-0.343702
-0.34361
-0.343664
-0.343715
-0.343755
-0.34379
-0.341971
-0.342018
-0.342071
-0.342139
-0.342221
-0.343048
-0.343003
-0.341746
-0.341617
-0.341504
-0.341416
-0.341349
-0.341487
-0.341569
-0.341679
-0.341813
-0.341965
-0.343491
-0.343963
-0.342144
-0.341956
-0.34179
-0.341659
-0.341547
-0.340745
-0.340939
-0.341155
-0.341426
-0.341747
-0.343999
-0.246038
-0.241067
-0.239689
-0.238543
-0.23758
-0.236793
-0.134484
-0.136802
-0.13959
-0.142931
-0.146934
-0.156198
-0.0818087
-0.0632846
-0.0553179
-0.0486741
-0.043152
-0.0385297
0.0239982
0.017519
0.00974156
0.000409496
-0.010776
-0.0404861
-0.0341658
0.00128642
0.0136019
0.0238712
0.0324318
0.0395654
0.0405655
0.033394
0.0247887
0.0144645
0.00207988
-0.0330938
-0.0329154
0.00218901
0.0145608
0.0248724
0.0334675
0.0406286
0.0567178
0.0484143
0.0384499
0.0264972
0.0121544
-0.0248835
-0.0250572
0.0120383
0.0263816
0.0383335
0.0482941
0.0565934
0.073724
0.0655109
0.0556549
0.0438255
0.0296334
-0.0101218
0.00826523
0.0511065
0.0631431
0.0731684
0.0815271
0.0884901
0.0974427
0.0917639
0.0849524
0.0767765
0.0669624
0.0331392
0.0476827
0.0727776
0.0827478
0.0910542
0.097977
0.103744
0.109377
0.102525
0.0943079
0.0844555
0.0726442
0.0440596
0.0127329
0.033557
0.0405986
0.0465447
0.0516369
0.0560653
-0.0412044
-0.0439236
-0.0466419
-0.0493609
-0.0520816
-0.0610099
-0.149301
-0.144736
-0.144056
-0.143376
-0.142695
-0.142016
-0.24319
-0.243267
-0.243344
-0.243421
-0.243498
-0.245577
-0.344879
-0.344052
-0.344052
-0.344051
-0.344051
-0.344051
-0.343727
-0.343727
-0.343727
-0.343728
-0.343728
-0.344565
-0.444352
-0.444025
-0.444024
-0.444024
-0.444023
-0.444023
-0.443855
-0.443854
-0.443854
-0.443853
-0.443851
-0.44414
-0.444043
-0.443885
-0.443898
-0.443911
-0.443925
-0.443937
-0.444487
-0.444457
-0.444419
-0.444372
-0.444317
-0.444171
-0.444038
-0.444175
-0.444234
-0.444288
-0.444333
-0.444367
-0.443433
-0.443433
-0.443427
-0.443421
-0.443416
-0.443674
-0.443754
-0.443307
-0.443303
-0.443289
-0.443285
-0.44327
-0.443625
-0.443647
-0.443644
-0.443665
-0.443681
-0.444193
-0.444754
-0.444212
-0.444177
-0.444161
-0.444151
-0.444128
-0.444409
-0.444435
-0.444471
-0.444506
-0.444562
-0.445187
-0.445385
-0.444562
-0.444445
-0.444343
-0.444267
-0.444203
-0.338863
-0.339231
-0.339651
-0.340166
-0.340781
-0.343674
-0.245823
-0.239631
-0.237449
-0.23563
-0.234103
-0.232843
-0.124277
-0.127529
-0.131444
-0.136139
-0.141777
-0.154675
-0.0824773
-0.0605998
-0.0513247
-0.0435897
-0.0371583
-0.0317724
0.0162032
0.00999934
0.00255669
-0.00637308
-0.0170837
-0.0445761
-0.0406954
-0.0115023
-0.00119416
0.00740236
0.0145644
0.020538
0.0212635
0.0153433
0.00824226
-0.000280633
-0.0105027
-0.0395429
-0.0393227
-0.0103376
-0.000137874
0.00836417
0.015448
0.0213544
0.0213261
0.0154226
0.00834704
-0.000148056
-0.0103458
-0.0393604
-0.0329739
0.00217594
0.0145376
0.0248402
0.0334229
0.0405754
0.0405226
0.0333709
0.024791
0.0144902
0.0021294
-0.0330738
-0.025194
0.0119613
0.0263034
0.0382548
0.048213
0.0565101
0.0736222
0.0654067
0.055548
0.0437155
0.0295203
-0.0103081
0.00806724
0.0509984
0.0630398
0.0730719
0.0814356
0.0884034
0.0973856
0.0917041
0.0848866
0.0767055
0.0668869
0.0329865
0.047548
0.0727131
0.0826935
0.0910085
0.0979389
0.103712
0.109364
0.102496
0.0942594
0.0843833
0.0725448
0.0439131
0.0125752
0.0335056
0.0405872
0.0465673
0.0516854
0.0561311
-0.0413616
-0.0440903
-0.0468181
-0.0495458
-0.0522749
-0.0612306
-0.149565
-0.145008
-0.144326
-0.143644
-0.142961
-0.142277
-0.243467
-0.243544
-0.243622
-0.243698
-0.243776
-0.245835
-0.345102
-0.344297
-0.344297
-0.344296
-0.344296
-0.344296
-0.444471
-0.444471
-0.444471
-0.444471
-0.444472
-0.444775
-0.44458
-0.444259
-0.444259
-0.444258
-0.444258
-0.444258
-0.543836
-0.543836
-0.543836
-0.543837
-0.543837
-0.543974
-0.543782
-0.543639
-0.543638
-0.543638
-0.543638
-0.543637
-0.543511
-0.543511
-0.543512
-0.543512
-0.543511
-0.543635
-0.543595
-0.543545
-0.543551
-0.543557
-0.543563
-0.543569
-0.543944
-0.543928
-0.54391
-0.543885
-0.543857
-0.543726
-0.543744
-0.543887
-0.543926
-0.543952
-0.543972
-0.544004
-0.543665
-0.543649
-0.543659
-0.543646
-0.543638
-0.543683
-0.544
-0.543908
-0.543902
-0.543919
-0.543899
-0.543908
-0.544644
-0.544635
-0.544655
-0.544645
-0.54465
-0.544686
-0.545677
-0.545755
-0.545755
-0.545758
-0.545747
-0.545751
-0.547074
-0.547079
-0.547084
-0.547085
-0.547092
-0.546873
-0.54813
-0.548467
-0.54844
-0.548435
-0.548415
-0.548404
-0.549304
-0.549328
-0.549369
-0.549403
-0.549453
-0.54909
-0.44533
-0.444129
-0.443855
-0.44363
-0.443445
-0.443287
-0.336051
-0.336709
-0.337481
-0.338415
-0.339542
-0.343303
-0.246644
-0.238944
-0.235628
-0.232861
-0.230546
-0.228624
-0.121725
-0.125765
-0.13063
-0.136468
-0.143472
-0.159692
-0.109565
-0.0814876
-0.0711704
-0.0625645
-0.0553921
-0.0494095
-0.0144811
-0.0204034
-0.0274969
-0.0360138
-0.0462269
-0.0736221
-0.0681592
-0.0358097
-0.0257584
-0.0173803
-0.0103916
-0.00456294
-0.00459506
-0.0104135
-0.0173875
-0.0257548
-0.0357999
-0.0676263
-0.0675461
-0.0358197
-0.0257742
-0.0174038
-0.0104283
-0.00461357
-0.00466469
-0.0104776
-0.0174552
-0.0258223
-0.035866
-0.0676184
-0.0677115
-0.0359247
-0.0258753
-0.0175026
-0.010525
-0.00470918
0.0212861
0.0153827
0.00830484
-0.000192493
-0.0103926
-0.039442
-0.0395058
-0.0104328
-0.000231466
0.00827011
0.015353
0.0212561
0.0404905
0.0333362
0.0247521
0.0144505
0.00208775
-0.0331456
-0.0252736
0.0119166
0.0262573
0.038208
0.0481668
0.056466
0.0735715
0.065356
0.0554975
0.0436671
0.0294731
-0.0103937
0.00799351
0.0509591
0.0629998
0.0730334
0.0813974
0.0883648
0.0973639
0.0916812
0.0848625
0.0766818
0.0668674
0.0329449
0.047516
0.0726976
0.0826776
0.0909935
0.0979241
0.103699
0.109354
0.102484
0.0942445
0.0843646
0.0725233
0.0438807
0.012542
0.0334973
0.0405832
0.0465654
0.0516865
0.0561334
-0.0413918
-0.0441233
-0.0468521
-0.0495806
-0.0523119
-0.0612752
-0.149651
-0.145102
-0.144419
-0.143736
-0.143055
-0.142371
-0.2436
-0.243677
-0.243753
-0.243831
-0.243909
-0.245952
-0.345235
-0.344445
-0.344444
-0.344444
-0.344443
-0.344443
-0.444639
-0.444639
-0.444639
-0.44464
-0.444641
-0.44493
-0.544393
-0.544287
-0.544287
-0.544286
-0.544286
-0.544285
-0.544057
-0.544057
-0.544058
-0.544058
-0.544059
-0.544179
-0.643292
-0.643252
-0.643251
-0.643251
-0.64325
-0.64325
-0.642954
-0.642954
-0.642955
-0.642955
-0.642956
-0.643015
-0.642807
-0.642737
-0.642736
-0.642736
-0.642735
-0.642735
-0.642604
-0.642604
-0.642605
-0.642605
-0.642606
-0.642672
-0.642643
-0.642612
-0.642613
-0.642614
-0.642615
-0.642618
-0.642851
-0.642844
-0.642837
-0.642829
-0.642817
-0.642744
-0.642858
-0.642956
-0.642966
-0.642978
-0.642999
-0.642999
-0.643042
-0.64305
-0.643039
-0.643041
-0.643039
-0.643012
-0.643533
-0.643585
-0.643591
-0.643587
-0.643587
-0.643587
-0.644656
-0.644661
-0.644652
-0.644664
-0.644654
-0.644479
-0.645912
-0.646295
-0.646299
-0.646287
-0.646296
-0.646291
-0.648497
-0.648499
-0.648505
-0.648508
-0.648505
-0.647856
-0.650222
-0.651166
-0.65117
-0.651164
-0.651156
-0.65116
-0.653663
-0.653664
-0.653672
-0.653677
-0.653682
-0.652528
-0.653248
-0.654562
-0.654536
-0.654527
-0.654505
-0.654501
-0.548962
-0.549034
-0.549114
-0.549207
-0.549322
-0.549094
-0.445061
-0.443219
-0.442649
-0.442172
-0.441775
-0.441452
-0.332399
-0.333553
-0.334904
-0.336542
-0.338509
-0.343573
-0.24729
-0.235365
-0.230324
-0.22612
-0.222601
-0.219695
-0.125678
-0.130335
-0.135921
-0.142622
-0.15066
-0.170128
-0.126763
-0.099576
-0.0890694
-0.0803093
-0.0730068
-0.0669207
-0.0553512
-0.061919
-0.0698082
-0.0792663
-0.0906149
-0.121098
-0.102525
-0.0664749
-0.0549326
-0.0453074
-0.0372857
-0.0305958
-0.0307538
-0.0374064
-0.0453891
-0.0549653
-0.0664548
-0.10179
-0.101681
-0.0665597
-0.0550698
-0.0454916
-0.0375084
-0.0308567
-0.0309377
-0.0375902
-0.0455748
-0.0551528
-0.0666467
-0.10174
-0.101832
-0.0667104
-0.0552111
-0.0456327
-0.0376453
-0.0309903
-0.0310218
-0.0376766
-0.0456664
-0.0552499
-0.0667546
-0.101902
-0.0677782
-0.0359673
-0.0259128
-0.0175352
-0.0105554
-0.00473642
-0.00474741
-0.0105697
-0.0175517
-0.0259347
-0.0359893
-0.0678179
-0.0395425
-0.010454
-0.000250042
0.0082496
0.0153373
0.0212398
0.0404733
0.033317
0.0247315
0.014428
0.0020622
-0.0331885
-0.0253159
0.0118911
0.0262338
0.0381853
0.048146
0.0564431
0.0735499
0.0653349
0.0554765
0.0436462
0.0294526
-0.0104287
0.00797222
0.0509469
0.0629856
0.073019
0.0813828
0.088348
0.0973555
0.0916727
0.0848566
0.0766775
0.0668623
0.0329407
0.0475166
0.0726937
0.0826745
0.090991
0.0979198
0.103694
0.10935
0.10248
0.0942402
0.0843599
0.072518
0.0438885
0.0125633
0.0335303
0.0406226
0.0466084
0.0517308
0.0561796
-0.0413797
-0.0441093
-0.0468378
-0.0495688
-0.052301
-0.0612648
-0.149666
-0.145123
-0.14444
-0.143755
-0.143072
-0.14239
-0.243651
-0.243727
-0.243805
-0.243884
-0.243961
-0.245996
-0.345312
-0.34453
-0.34453
-0.344529
-0.344529
-0.344528
-0.444777
-0.444777
-0.444777
-0.444778
-0.444779
-0.445058
-0.544622
-0.544532
-0.544532
-0.544531
-0.54453
-0.54453
-0.64411
-0.64411
-0.64411
-0.644111
-0.644112
-0.644088
-0.643649
-0.643637
-0.643636
-0.643636
-0.643635
-0.643635
-0.742961
-0.742962
-0.742962
-0.742963
-0.742964
-0.742893
-0.742258
-0.742277
-0.742277
-0.742276
-0.742276
-0.742275
-0.741798
-0.741798
-0.741799
-0.741799
-0.7418
-0.741817
-0.741532
-0.741495
-0.741495
-0.741494
-0.741494
-0.741494
-0.74132
-0.741321
-0.741321
-0.741322
-0.741323
-0.741366
-0.741316
-0.741282
-0.741281
-0.74128
-0.741281
-0.74128
-0.741386
-0.741386
-0.741386
-0.741386
-0.741387
-0.741372
-0.741522
-0.741566
-0.741567
-0.74157
-0.741573
-0.741575
-0.74185
-0.74185
-0.741849
-0.741848
-0.741849
-0.7418
-0.742434
-0.742555
-0.742551
-0.742547
-0.742556
-0.742551
-0.743806
-0.7438
-0.7438
-0.743797
-0.743807
-0.743531
-0.745228
-0.74574
-0.745733
-0.745745
-0.745736
-0.745742
-0.748492
-0.748491
-0.748494
-0.748486
-0.748491
-0.747643
-0.750762
-0.752039
-0.752034
-0.752034
-0.752035
-0.752036
-0.755845
-0.755859
-0.755842
-0.755855
-0.755854
-0.754176
-0.757046
-0.758338
-0.758338
-0.758324
-0.758338
-0.758323
-0.75238
-0.752385
-0.752384
-0.7524
-0.752402
-0.750944
-0.650151
-0.651462
-0.651405
-0.651371
-0.651328
-0.651311
-0.546548
-0.546722
-0.546901
-0.547119
-0.547393
-0.547587
-0.444612
-0.44181
-0.440734
-0.439837
-0.439085
-0.438472
-0.32899
-0.330798
-0.332955
-0.335555
-0.338666
-0.345486
-0.255367
-0.239721
-0.233209
-0.22778
-0.22325
-0.219481
-0.140954
-0.146835
-0.153878
-0.162339
-0.172476
-0.201281
-0.161013
-0.13393
-0.123836
-0.115416
-0.108395
-0.102535
-0.0845213
-0.0909503
-0.0986593
-0.107906
-0.118993
-0.153272
-0.152032
-0.118426
-0.107529
-0.0984434
-0.090872
-0.0845597
-0.0557017
-0.0621177
-0.0698247
-0.0790675
-0.0901569
-0.119903
-0.119726
-0.0901989
-0.0791374
-0.0699181
-0.0622356
-0.0558344
-0.055936
-0.0623356
-0.0700139
-0.0792306
-0.0902872
-0.119794
-0.119887
-0.0903617
-0.0793017
-0.0700827
-0.0623997
-0.0560004
-0.056037
-0.0624385
-0.0701243
-0.0793482
-0.0904134
-0.119957
-0.119999
-0.0904407
-0.0793742
-0.070146
-0.06246
-0.0560532
-0.031035
-0.0376897
-0.0456819
-0.0552682
-0.0667781
-0.101945
-0.101967
-0.0667845
-0.0552736
-0.0456873
-0.037695
-0.0310348
-0.00475366
-0.0105717
-0.0175568
-0.0259399
-0.0359969
-0.0678391
-0.0395609
-0.0104618
-0.000255533
0.00824639
0.0153318
0.0212375
0.0404664
0.0333113
0.0247224
0.014418
0.00205064
-0.033212
-0.025339
0.0118787
0.0262226
0.0381734
0.0481347
0.0564338
0.0735413
0.0653261
0.055466
0.0436397
0.0294449
-0.0104439
0.00796673
0.0509442
0.0629829
0.0730137
0.0813757
0.0883427
0.097351
0.0916701
0.0848559
0.0766778
0.0668629
0.0329445
0.0475199
0.0726941
0.082675
0.0909902
0.0979195
0.103693
0.109345
0.102474
0.0942357
0.0843567
0.072515
0.0438902
0.0125734
0.0335362
0.0406278
0.0466149
0.0517344
0.0561811
-0.0413603
-0.0440897
-0.0468193
-0.0495504
-0.0522841
-0.0612459
-0.149659
-0.145119
-0.144436
-0.143751
-0.143066
-0.142384
-0.243671
-0.243748
-0.243827
-0.243906
-0.243983
-0.246014
-0.345364
-0.344587
-0.344587
-0.344586
-0.344585
-0.344585
-0.444897
-0.444898
-0.444898
-0.444899
-0.444899
-0.44517
-0.544861
-0.544794
-0.544794
-0.544793
-0.544792
-0.544792
-0.644658
-0.644658
-0.644659
-0.644659
-0.64466
-0.644586
-0.744741
-0.745003
-0.745003
-0.745002
-0.745001
-0.745001
-0.743887
-0.743887
-0.743888
-0.743889
-0.74389
-0.743737
-0.843907
-0.844259
-0.844258
-0.844257
-0.844256
-0.844255
-0.842519
-0.84252
-0.842521
-0.842522
-0.842524
-0.842343
-0.841227
-0.841304
-0.841302
-0.841301
-0.8413
-0.8413
-0.840522
-0.840523
-0.840523
-0.840524
-0.840525
-0.840507
-0.840078
-0.840065
-0.840064
-0.840064
-0.840063
-0.840063
-0.83981
-0.839811
-0.839811
-0.839812
-0.839813
-0.839842
-0.83975
-0.839713
-0.839711
-0.83971
-0.839707
-0.839706
-0.839719
-0.839723
-0.839728
-0.839732
-0.839738
-0.839756
-0.839905
-0.839911
-0.839911
-0.839904
-0.839901
-0.8399
-0.840258
-0.840263
-0.840254
-0.840259
-0.840261
-0.840215
-0.84085
-0.840981
-0.840975
-0.840978
-0.840983
-0.840978
-0.842207
-0.842207
-0.842216
-0.842204
-0.842211
-0.841929
-0.843615
-0.844134
-0.844134
-0.844134
-0.844135
-0.844129
-0.846939
-0.846954
-0.846939
-0.846947
-0.84695
-0.846072
-0.849315
-0.850711
-0.8507
-0.850701
-0.850709
-0.850702
-0.855026
-0.855016
-0.855022
-0.855014
-0.855026
-0.852884
-0.856077
-0.858711
-0.858707
-0.858705
-0.858704
-0.858707
-0.859289
-0.859293
-0.85929
-0.859294
-0.859291
-0.858064
-0.901263
-0.901674
-0.901662
-0.901652
-0.901642
-0.901635
-0.925135
-0.933816
-0.941054
-0.947089
-0.952118
-0.952116
-0.947088
-0.941058
-0.933824
-0.925147
-0.925158
-0.933834
-0.941069
-0.947093
-0.952109
-0.95211
-0.947087
-0.941067
-0.933838
-0.925175
-0.925191
-0.93385
-0.941075
-0.947082
-0.9521
-0.952256
-0.947092
-0.9409
-0.933466
-0.924547
-0.92577
-0.934473
-0.941732
-0.947774
-0.952813
-0.909953
-0.903518
-0.895797
-0.886531
-0.87541
-0.848825
-0.805087
-0.838043
-0.851607
-0.862913
-0.872333
-0.88018
-0.880021
-0.872008
-0.862386
-0.850842
-0.836988
-0.837536
-0.851203
-0.862593
-0.872084
-0.879991
-0.880008
-0.872098
-0.862602
-0.851207
-0.837533
-0.837534
-0.851215
-0.86261
-0.872106
-0.880021
-0.880039
-0.872118
-0.862617
-0.851214
-0.837534
-0.837532
-0.851214
-0.862619
-0.872124
-0.880042
-0.865311
-0.856821
-0.846634
-0.834408
-0.819736
-0.819737
-0.834405
-0.846629
-0.856816
-0.865303
-0.865294
-0.856808
-0.846623
-0.834401
-0.819738
-0.819733
-0.834396
-0.846615
-0.856795
-0.86528
-0.865263
-0.856783
-0.846605
-0.83439
-0.819733
-0.818248
-0.833338
-0.845913
-0.856389
-0.865116
-0.865072
-0.85624
-0.84564
-0.832916
-0.817648
-0.782423
-0.782357
-0.782429
-0.782414
-0.782395
-0.782377
-0.782373
-0.718851
-0.718909
-0.718954
-0.719023
-0.719101
-0.718008
-0.636473
-0.636873
-0.636497
-0.636198
-0.635928
-0.63572
-0.536335
-0.537047
-0.537877
-0.538901
-0.540109
-0.542448
-0.446181
-0.439755
-0.436596
-0.43397
-0.431765
-0.429939
-0.321637
-0.325343
-0.329775
-0.335103
-0.341486
-0.35664
-0.302177
-0.274009
-0.264408
-0.256408
-0.249734
-0.244172
-0.20407
-0.209652
-0.216362
-0.224406
-0.234046
-0.260252
-0.22214
-0.195124
-0.185139
-0.176809
-0.169869
-0.164081
-0.150279
-0.156541
-0.164048
-0.173055
-0.18386
-0.214798
-0.19192
-0.153463
-0.14174
-0.131967
-0.12382
-0.117029
-0.116792
-0.12348
-0.131496
-0.141118
-0.152661
-0.190298
-0.189931
-0.152613
-0.141103
-0.13151
-0.123521
-0.116855
-0.0846831
-0.0909813
-0.0985424
-0.107616
-0.118497
-0.151855
-0.151906
-0.118584
-0.107706
-0.09864
-0.0910841
-0.0847925
-0.0848612
-0.091156
-0.0987144
-0.107783
-0.118669
-0.152006
-0.152083
-0.118724
-0.107833
-0.0987615
-0.0912007
-0.0849038
-0.0849227
-0.0912222
-0.0987888
-0.10786
-0.118756
-0.15213
-0.152158
-0.118772
-0.107876
-0.0988019
-0.0912333
-0.0849301
-0.0560598
-0.0624693
-0.0701576
-0.0793859
-0.0904544
-0.120023
-0.120033
-0.0904595
-0.0793873
-0.0701603
-0.0624697
-0.0560602
-0.0310324
-0.0376926
-0.0456849
-0.055276
-0.0667855
-0.101977
-0.0678442
-0.0359978
-0.0259382
-0.0175577
-0.01057
-0.00475194
0.0212384
0.0153326
0.0082471
-0.000256953
-0.0104621
-0.0395671
-0.0332227
0.00204664
0.0144145
0.0247191
0.03331
0.0404659
0.056433
0.0481298
0.0381687
0.0262195
0.0118753
-0.0253488
-0.0104488
0.0294447
0.0436396
0.0554653
0.0653212
0.0735364
0.0883377
0.081373
0.0730136
0.0629827
0.0509444
0.00796669
0.0329476
0.0668647
0.076676
0.0848535
0.0916685
0.0973464
0.103691
0.0979167
0.0909865
0.0826736
0.0726963
0.0475238
0.0438951
0.0725154
0.084355
0.0942314
0.102469
0.10934
0.0561907
0.0517445
0.0466242
0.0406376
0.0335462
0.0125855
-0.0612315
-0.052271
-0.0495379
-0.0468081
-0.044076
-0.0413454
-0.142377
-0.14306
-0.143744
-0.144428
-0.145112
-0.149652
-0.246023
-0.243992
-0.243914
-0.243836
-0.243758
-0.243681
-0.344627
-0.344627
-0.344628
-0.344628
-0.344629
-0.345401
-0.445271
-0.445009
-0.445008
-0.445008
-0.445007
-0.445007
-0.545047
-0.545047
-0.545047
-0.545048
-0.545048
-0.545093
-0.645086
-0.645215
-0.645214
-0.645213
-0.645213
-0.645213
-0.746164
-0.746164
-0.746164
-0.746165
-0.746166
-0.745778
-0.847899
-0.848772
-0.848771
-0.848771
-0.848771
-0.848771
-0.846433
-0.846433
-0.846434
-0.846434
-0.846435
-0.845843
-0.948395
-0.949574
-0.949574
-0.949574
-0.949574
-0.949574
-0.945546
-0.945547
-0.945547
-0.945548
-0.945549
-0.944867
-0.942146
-0.942496
-0.942494
-0.942493
-0.942492
-0.942491
-0.940448
-0.940448
-0.94045
-0.940451
-0.940454
-0.940299
-0.939166
-0.939219
-0.939217
-0.939215
-0.939214
-0.939214
-0.938533
-0.938534
-0.938534
-0.938535
-0.938536
-0.93853
-0.938194
-0.938176
-0.938174
-0.938174
-0.938173
-0.938173
-0.938
-0.938004
-0.938006
-0.938007
-0.93801
-0.938044
-0.937999
-0.937967
-0.937959
-0.937954
-0.937948
-0.937942
-0.93808
-0.938083
-0.938088
-0.938093
-0.938104
-0.938113
-0.938383
-0.938416
-0.93841
-0.93841
-0.93841
-0.93841
-0.939016
-0.939016
-0.939016
-0.93902
-0.939017
-0.938915
-0.939806
-0.940029
-0.940038
-0.940027
-0.940035
-0.940031
-0.941633
-0.941627
-0.941627
-0.941631
-0.941632
-0.94121
-0.94329
-0.944012
-0.944011
-0.944011
-0.943998
-0.944014
-0.947268
-0.947265
-0.947274
-0.947276
-0.947269
-0.946061
-0.949144
-0.95129
-0.951293
-0.951296
-0.951285
-0.951288
-0.955738
-0.955723
-0.955737
-0.955733
-0.955731
-0.951684
-0.96778
-0.985701
-0.991844
-0.996964
-1.00123
-1.00479
-1.00422
-1.00421
-1.00422
-1.00421
-1.00422
-1.00071
-1.00072
-1.00072
-1.00072
-1.00073
-0.996529
-0.996523
-0.996514
-0.996507
-0.996498
-0.991443
-0.991455
-0.991466
-0.991486
-0.991504
-0.985464
-0.985434
-0.985411
-0.985397
-0.985376
-0.969986
-0.969988
-0.970007
-0.97002
-0.970035
-1.05322
-1.0532
-1.05319
-1.05318
-1.05316
-1.05718
-1.05719
-1.05722
-1.05724
-1.05727
-1.05973
-1.0597
-1.05969
-1.05967
-1.05966
-1.06172
-1.06173
-1.06174
-1.06176
-1.06177
-1.06348
-1.06347
-1.06346
-1.06345
-1.06345
-1.06488
-1.06488
-1.06488
-1.0649
-1.0649
-1.06536
-1.0639
-1.06213
-1.06001
-1.05747
-1.0529
-1.05264
-1.05806
-1.06064
-1.0628
-1.06459
-1.06608
-1.00589
-1.00241
-0.998227
-0.99321
-0.987187
-0.965479
-0.902074
-0.904993
-0.929569
-0.937329
-0.943799
-0.949186
-0.953669
-0.910436
-0.904667
-0.897745
-0.88944
-0.879474
-0.851483
-0.80737
-0.841183
-0.853845
-0.864399
-0.873189
-0.880518
-0.865286
-0.856771
-0.846551
-0.834287
-0.819568
-0.784435
-0.783351
-0.818607
-0.833643
-0.846172
-0.856612
-0.865308
-0.865139
-0.856126
-0.845307
-0.832321
-0.816736
-0.781296
-0.780856
-0.817176
-0.832643
-0.845532
-0.856267
-0.865214
-0.865359
-0.865372
-0.865383
-0.865388
-0.865394
-0.856645
-0.856641
-0.856636
-0.85663
-0.85662
-0.846135
-0.846139
-0.846141
-0.846141
-0.846143
-0.833539
-0.833541
-0.833546
-0.833548
-0.833549
-0.81845
-0.81844
-0.818433
-0.818421
-0.818415
-0.780383
-0.780412
-0.780448
-0.780501
-0.780552
-0.716477
-0.716206
-0.715977
-0.71579
-0.715627
-0.630748
-0.631277
-0.631919
-0.632669
-0.633589
-0.634444
-0.541672
-0.537062
-0.534674
-0.532678
-0.53103
-0.529633
-0.420823
-0.423751
-0.427286
-0.43153
-0.436605
-0.447974
-0.370562
-0.352067
-0.344568
-0.338323
-0.33311
-0.328759
-0.270612
-0.275953
-0.282364
-0.290051
-0.299276
-0.325143
-0.317682
-0.28802
-0.278418
-0.270412
-0.26374
-0.258178
-0.220293
-0.226569
-0.234101
-0.243136
-0.253972
-0.292189
-0.251787
-0.218303
-0.20774
-0.19893
-0.191582
-0.185459
-0.18489
-0.190866
-0.19803
-0.206628
-0.216939
-0.24985
-0.212913
-0.182774
-0.172278
-0.163534
-0.156238
-0.150162
-0.150136
-0.156181
-0.163429
-0.172123
-0.18256
-0.212421
-0.212363
-0.182565
-0.172144
-0.163461
-0.156226
-0.150189
-0.116946
-0.123601
-0.131586
-0.141169
-0.15267
-0.189911
-0.189992
-0.152742
-0.14124
-0.131655
-0.12367
-0.117012
-0.117055
-0.123717
-0.131704
-0.141294
-0.152796
-0.190065
-0.190117
-0.152831
-0.141326
-0.131734
-0.123742
-0.117083
-0.117094
-0.123754
-0.13175
-0.141341
-0.152852
-0.190147
-0.19016
-0.15286
-0.141348
-0.131753
-0.123758
-0.117098
-0.0849317
-0.0912351
-0.0988034
-0.107883
-0.118777
-0.152171
-0.152177
-0.118779
-0.107883
-0.0988002
-0.0912342
-0.0849291
-0.0560561
-0.0624656
-0.0701586
-0.0793862
-0.0904605
-0.120037
-0.10198
-0.0667847
-0.0552746
-0.045681
-0.037686
-0.0310289
-0.00474587
-0.0105711
-0.0175552
-0.0259384
-0.0359984
-0.0678479
-0.0395696
-0.0104607
-0.000254524
0.00824745
0.0153378
0.0212404
0.0404683
0.0333104
0.0247206
0.0144164
0.00204664
-0.0332267
-0.0253521
0.011874
0.0262191
0.0381693
0.0481285
0.0564332
0.0735327
0.0653195
0.0554661
0.0436385
0.0294448
-0.0104511
0.00796518
0.050945
0.0629815
0.0730139
0.0813712
0.0883355
0.0973428
0.0916658
0.0848499
0.0766734
0.0668635
0.0329492
0.0475273
0.0726951
0.0826714
0.0909856
0.0979143
0.103688
0.109335
0.102466
0.0942291
0.0843526
0.0725132
0.0438963
0.0125893
0.033545
0.0406366
0.046623
0.0517429
0.05619
-0.0413402
-0.0440696
-0.0468008
-0.0495321
-0.052264
-0.0612229
-0.14965
-0.145109
-0.144423
-0.143739
-0.143056
-0.142372
-0.243688
-0.243765
-0.243842
-0.24392
-0.243999
-0.246029
-0.34543
-0.34466
-0.34466
-0.344659
-0.344659
-0.344659
-0.445096
-0.445097
-0.445097
-0.445097
-0.445098
-0.445351
-0.545282
-0.545256
-0.545256
-0.545255
-0.545255
-0.545255
-0.64568
-0.64568
-0.64568
-0.64568
-0.645681
-0.645507
-0.746666
-0.747165
-0.747164
-0.747164
-0.747164
-0.747164
-0.850826
-0.850827
-0.850827
-0.850827
-0.850827
-0.849687
-0.956353
-0.957529
-0.957552
-0.957576
-0.9576
-0.957625
-0.953962
-0.953962
-0.953962
-0.953962
-0.953962
-0.952461
-1.0617
-1.06206
-1.06213
-1.06219
-1.06226
-1.06233
-1.05459
-1.05459
-1.05459
-1.05459
-1.05459
-1.05339
-1.04659
-1.04776
-1.04776
-1.04776
-1.04776
-1.04776
-1.04284
-1.04284
-1.04284
-1.04284
-1.04284
-1.04226
-1.03947
-1.03972
-1.03972
-1.03972
-1.03972
-1.03972
-1.03791
-1.03791
-1.03791
-1.03791
-1.03791
-1.03782
-1.03693
-1.03695
-1.03695
-1.03695
-1.03695
-1.03695
-1.03646
-1.03646
-1.03646
-1.03647
-1.03647
-1.03647
-1.03626
-1.03624
-1.03623
-1.03623
-1.03623
-1.03623
-1.03612
-1.03612
-1.03612
-1.03613
-1.03614
-1.03617
-1.03622
-1.0362
-1.0362
-1.03619
-1.03619
-1.03619
-1.03641
-1.03641
-1.03641
-1.03641
-1.03641
-1.0364
-1.03675
-1.0368
-1.03681
-1.03681
-1.0368
-1.0368
-1.03746
-1.03746
-1.03747
-1.03746
-1.03747
-1.03733
-1.03827
-1.03851
-1.03851
-1.03851
-1.03851
-1.03851
-1.04008
-1.04009
-1.04008
-1.04008
-1.04008
-1.03968
-1.04161
-1.04227
-1.04227
-1.04226
-1.04227
-1.04226
-1.04507
-1.04507
-1.04506
-1.04507
-1.04507
-1.04394
-1.04735
-1.04864
-1.04864
-1.04863
-1.04865
-1.04863
-1.13721
-1.13721
-1.13721
-1.13721
-1.13721
-1.13825
-1.13595
-1.13353
-1.13244
-1.13154
-1.13079
-1.13016
-1.12985
-1.12983
-1.12984
-1.12982
-1.12982
-1.13042
-1.13042
-1.13044
-1.13044
-1.13046
-1.13119
-1.13117
-1.13116
-1.13115
-1.13114
-1.132
-1.13201
-1.13203
-1.13205
-1.13207
-1.13312
-1.1331
-1.13307
-1.13305
-1.13304
-1.13513
-1.13513
-1.13514
-1.13516
-1.13518
-1.22036
-1.22034
-1.22033
-1.22032
-1.22031
-1.20694
-1.20696
-1.20698
-1.207
-1.20703
-1.20263
-1.2026
-1.20259
-1.20257
-1.20256
-1.1989
-1.19891
-1.19892
-1.19893
-1.19895
-1.19589
-1.19588
-1.19587
-1.19586
-1.19586
-1.19331
-1.19331
-1.19331
-1.19333
-1.19334
-1.19362
-1.19621
-1.1993
-1.20301
-1.20747
-1.22276
-1.22548
-1.20735
-1.20303
-1.19944
-1.19644
-1.19393
-1.13073
-1.13137
-1.13214
-1.13306
-1.13416
-1.13705
-1.13762
-1.13442
-1.13335
-1.13247
-1.13172
-1.1311
-1.06659
-1.06515
-1.06343
-1.06136
-1.05888
-1.05303
-0.965439
-0.989314
-0.994931
-0.999607
-1.00351
-1.00675
-1.00722
-1.00407
-1.00029
-0.995756
-0.990315
-0.967267
-0.907584
-0.931655
-0.938938
-0.945008
-0.950065
-0.954272
-0.910643
-0.905193
-0.898653
-0.890803
-0.881387
-0.852543
-0.807864
-0.842694
-0.854945
-0.865152
-0.87366
-0.880749
-0.8654
-0.857054
-0.847036
-0.835015
-0.820591
-0.785388
-0.784301
-0.819642
-0.834374
-0.84665
-0.856879
-0.8654
-0.88075
-0.873316
-0.8644
-0.853695
-0.840851
-0.805578
-0.805053
-0.839345
-0.852622
-0.863681
-0.872898
-0.880577
-0.880338
-0.872142
-0.862304
-0.850496
-0.836324
-0.802546
-0.798794
-0.796131
-0.795972
-0.795835
-0.795731
-0.795635
-0.834215
-0.849021
-0.86136
-0.871644
-0.88021
-0.880208
-0.871648
-0.86137
-0.849036
-0.834238
-0.834263
-0.849051
-0.861379
-0.871648
-0.880201
-0.880194
-0.871647
-0.861387
-0.849071
-0.834294
-0.834327
-0.849093
-0.861396
-0.871649
-0.880185
-0.880229
-0.871727
-0.861521
-0.849273
-0.834573
-0.871416
-0.883703
-0.893949
-0.902479
-0.909589
-0.909264
-0.902128
-0.89357
-0.883289
-0.87096
-0.870905
-0.883255
-0.893551
-0.902124
-0.909266
-0.909265
-0.902115
-0.893526
-0.88323
-0.870866
-0.870827
-0.883205
-0.893512
-0.902108
-0.909265
-0.909266
-0.902101
-0.893504
-0.883185
-0.870801
-0.837187
-0.837312
-0.837455
-0.837625
-0.837833
-0.840873