/*--------------------------------*- C++ -*----------------------------------*\
| =========                 |                                                 |
| \\      /  F ield         | OpenFOAM: The Open Source CFD Toolbox           |
|  \\    /   O peration     | Version:  2212                                  |
|   \\  /    A nd           | Website:  www.openfoam.com                      |
|    \\/     M anipulation  |                                                 |
\*---------------------------------------------------------------------------*/
FoamFile
{
    version     2.0;
    format      ascii;
    arch        "LSB;label=32;scalar=64";
    class       volScalarField;
    location    "360";
    object      T;
}
// * * * * * * * * * * * * * * * * * * * * * * * * * * * * * * * * * * * * * //

dimensions      [0 0 0 1 0 0 0];

internalField   nonuniform List<scalar> 
248319
(
310.161
310.136
309.819
309.664
309.542
309.473
309.452
309.487
309.511
309.587
309.711
309.873
310.15
310.028
309.717
309.567
309.496
309.461
309.457
309.596
309.617
309.672
309.736
309.809
309.914
309.909
309.812
309.781
309.756
309.717
309.701
309.552
309.546
309.564
309.592
309.644
309.988
310.287
309.984
309.779
309.642
309.575
309.561
309.621
309.663
309.777
309.93
310.098
310.383
310.511
310.315
310.13
309.955
309.821
309.771
309.733
309.767
309.869
310.007
310.156
310.441
310.264
309.955
309.823
309.7
309.605
309.57
309.544
309.57
309.65
309.768
309.905
310.383
310.213
309.797
309.65
309.547
309.491
309.474
309.451
309.451
309.478
309.542
309.707
310.091
309.985
309.866
309.78
309.697
309.625
309.592
309.801
309.869
309.953
310.041
310.137
310.245
310.211
310.096
310.013
309.933
309.85
309.791
309.843
309.913
310.004
310.099
310.206
310.328
310.361
310.138
309.948
309.769
309.648
309.611
309.77
309.817
309.946
310.105
310.26
310.478
310.602
310.431
310.279
310.119
309.978
309.921
310.034
310.093
310.234
310.386
310.533
310.696
310.611
310.429
310.27
310.101
309.952
309.891
309.851
309.895
310.028
310.198
310.378
310.602
310.705
310.326
310.126
309.952
309.826
309.781
309.671
309.704
309.802
309.938
310.093
310.525
310.671
310.006
309.849
309.725
309.639
309.607
309.501
309.521
309.586
309.689
309.826
310.492
310.271
309.719
309.591
309.516
309.481
309.473
309.442
309.446
309.469
309.517
309.643
310.119
310.042
309.903
309.796
309.693
309.603
309.557
309.751
309.833
309.941
310.059
310.186
310.326
310.539
310.341
310.18
310.026
309.882
309.766
309.806
309.903
310.017
310.135
310.258
310.388
310.479
310.31
310.172
310.037
309.904
309.789
309.807
309.891
309.995
310.102
310.221
310.357
310.369
310.145
309.959
309.78
309.649
309.605
309.754
309.8
309.925
310.085
310.25
310.496
310.647
310.434
310.258
310.088
309.947
309.895
309.997
310.053
310.196
310.362
310.538
310.744
310.789
310.586
310.426
310.272
310.132
310.068
310.097
310.161
310.299
310.437
310.571
310.718
310.652
310.478
310.335
310.183
310.038
309.973
309.935
309.995
310.151
310.332
310.511
310.686
310.855
310.554
310.303
310.086
309.924
309.866
309.803
309.845
309.982
310.208
310.541
311.029
310.823
310.221
310.009
309.853
309.752
309.718
309.738
309.771
309.879
310.073
310.335
311.059
310.886
309.974
309.805
309.686
309.611
309.586
309.506
309.517
309.56
309.648
309.799
310.754
310.496
309.705
309.574
309.522
309.508
309.506
309.442
309.447
309.465
309.501
309.614
310.252
310.19
309.994
309.848
309.712
309.598
309.538
309.723
309.84
309.997
310.168
310.347
310.54
310.802
310.54
310.314
310.098
309.897
309.743
309.744
309.92
310.148
310.397
310.66
310.941
310.654
310.438
310.252
310.072
309.9
309.759
309.747
309.902
310.09
310.287
310.493
310.714
310.516
310.341
310.193
310.047
309.9
309.771
309.77
309.863
309.974
310.088
310.213
310.357
310.351
310.117
309.93
309.755
309.625
309.581
309.718
309.763
309.883
310.042
310.213
310.483
310.665
310.417
310.224
310.046
309.91
309.863
309.973
310.025
310.168
310.346
310.542
310.784
310.851
310.628
310.445
310.273
310.127
310.069
310.166
310.227
310.37
310.528
310.687
310.859
310.765
310.596
310.462
310.329
310.2
310.137
310.141
310.204
310.332
310.455
310.57
310.691
310.648
310.495
310.371
310.236
310.102
310.037
309.994
310.057
310.209
310.378
310.542
310.701
310.863
310.619
310.383
310.164
309.994
309.93
309.858
309.905
310.064
310.346
310.723
311.042
311.244
310.985
310.736
310.377
310.113
310.03
309.871
309.923
310.102
310.446
310.769
311.239
311.565
311.208
311.01
310.77
310.503
310.389
310.056
310.119
310.299
310.563
310.807
311.4
311.243
310.252
310.015
309.844
309.739
309.706
309.588
309.589
309.608
309.69
309.885
311.094
310.888
309.771
309.609
309.567
309.566
309.569
309.468
309.474
309.49
309.522
309.65
310.618
310.549
310.251
310.017
309.802
309.632
309.542
309.744
309.941
310.202
310.479
310.752
311.009
311.306
310.966
310.638
310.308
310
309.767
309.753
309.995
310.323
310.687
311.063
311.454
311.46
311.026
310.637
310.272
309.951
309.72
309.714
309.898
310.136
310.399
310.683
310.994
310.998
310.666
310.378
310.111
309.872
309.689
309.717
309.879
310.075
310.281
310.499
310.736
310.528
310.349
310.195
310.042
309.886
309.747
309.735
309.834
309.951
310.069
310.199
310.351
310.327
310.076
309.891
309.719
309.594
309.553
309.682
309.728
309.842
309.996
310.167
310.466
310.67
310.386
310.191
310.014
309.885
309.841
309.969
310.017
310.155
310.343
310.551
310.824
310.93
310.682
310.481
310.296
310.144
310.088
310.203
310.268
310.422
310.596
310.772
310.964
310.947
310.812
310.682
310.532
310.381
310.307
310.247
310.31
310.442
310.574
310.694
310.806
310.7
310.576
310.478
310.372
310.261
310.202
310.177
310.236
310.347
310.449
310.541
310.631
310.635
310.506
310.401
310.281
310.154
310.092
310.034
310.091
310.234
310.391
310.54
310.683
310.812
310.601
310.388
310.182
310.023
309.965
309.877
309.921
310.072
310.354
310.701
310.959
311.122
310.998
310.801
310.509
310.267
310.184
310.769
310.836
311.012
311.183
311.277
311.309
311.493
311.312
311.157
310.95
310.752
310.663
311.022
311.097
311.289
311.472
311.616
311.801
311.907
311.551
311.358
311.154
310.963
310.873
310.574
310.667
310.875
311.067
311.247
311.797
311.663
310.807
310.545
310.291
310.119
310.058
309.751
309.751
309.777
309.908
310.194
311.464
311.199
309.867
309.691
309.65
309.652
309.656
309.549
309.561
309.595
309.648
309.777
311.099
311.149
310.807
310.444
310.071
309.767
309.602
309.86
310.197
310.617
311.012
311.31
311.535
311.849
311.511
311.142
310.692
310.23
309.869
309.829
310.172
310.637
311.123
311.581
312.014
312.019
311.464
310.98
310.5
310.069
309.768
309.71
309.968
310.356
310.808
311.282
311.894
311.375
310.943
310.559
310.204
309.897
309.679
309.643
309.844
310.132
310.467
310.832
311.248
310.957
310.63
310.343
310.077
309.838
309.656
309.687
309.852
310.052
310.263
310.487
310.73
310.53
310.348
310.188
310.029
309.867
309.721
309.702
309.806
309.929
310.049
310.181
310.336
310.306
310.034
309.849
309.682
309.562
309.523
309.654
309.7
309.809
309.958
310.127
310.451
310.675
310.369
310.174
310.001
309.878
309.836
309.991
310.038
310.174
310.361
310.575
310.879
311.034
310.764
310.55
310.352
310.195
310.139
310.28
310.35
310.519
310.709
310.898
311.105
311.108
310.977
310.837
310.668
310.495
310.412
310.555
310.65
310.843
311.035
311.202
311.351
311.043
310.916
310.792
310.645
310.494
310.416
310.321
310.383
310.503
310.617
310.714
310.802
310.641
310.547
310.473
310.391
310.299
310.249
310.202
310.255
310.348
310.428
310.496
310.561
310.658
310.551
310.456
310.338
310.214
310.153
310.072
310.128
310.273
310.426
310.552
310.665
310.771
310.558
310.359
310.172
310.032
309.983
309.881
309.92
310.045
310.272
310.587
310.879
311.015
310.96
310.814
310.547
310.316
310.235
310.84
310.905
311.062
311.187
311.222
311.168
311.344
311.422
311.423
311.339
311.19
311.116
311.057
311.128
311.295
311.423
311.479
311.514
311.766
311.707
311.663
311.568
311.414
311.329
311.316
311.397
311.589
311.761
311.917
312.126
312.326
311.931
311.709
311.497
311.298
311.206
311.028
311.11
311.272
311.452
311.646
312.235
312.115
311.307
311.112
310.911
310.702
310.607
310.023
310.048
310.161
310.409
310.75
311.886
311.538
310.093
309.884
309.814
309.793
309.79
309.736
309.77
309.868
309.991
310.102
311.426
311.528
311.368
311.055
310.536
310.042
309.762
310.115
310.628
311.2
311.566
311.802
312.011
312.415
312.034
311.689
311.224
310.604
310.086
309.998
310.456
311.067
311.632
312.094
312.612
312.57
311.87
311.362
310.813
310.275
309.901
309.816
310.115
310.562
311.052
311.533
312.399
312.167
311.168
310.745
310.334
309.976
309.741
309.651
309.869
310.205
310.61
311.045
311.723
311.525
310.797
310.417
310.071
309.788
309.605
309.599
309.781
310.044
310.353
310.691
311.093
310.887
310.571
310.291
310.032
309.798
309.622
309.655
309.822
310.024
310.237
310.463
310.712
310.52
310.338
310.176
310.013
309.846
309.693
309.67
309.781
309.909
310.032
310.166
310.326
310.292
309.996
309.81
309.645
309.532
309.495
309.635
309.681
309.79
309.934
310.1
310.446
310.7
310.372
310.18
310.012
309.892
309.851
310.039
310.086
310.222
310.409
310.621
310.948
311.149
310.867
310.645
310.439
310.274
310.217
310.383
310.462
310.645
310.845
311.038
311.242
311.274
311.156
311.014
310.83
310.635
310.539
310.691
310.808
311.046
311.291
311.51
311.709
313.152
312.728
312.275
311.793
311.386
311.227
311.026
311.173
311.533
311.95
312.345
312.712
312.237
311.928
311.617
311.28
310.976
310.844
310.719
310.837
311.095
311.367
311.605
311.815
311.621
311.422
311.215
310.976
310.742
310.632
310.505
310.61
310.831
311.055
311.244
311.407
311.216
310.994
310.804
310.611
310.434
310.363
310.254
310.296
310.435
310.624
310.887
311.435
310.748
310.634
310.45
310.274
310.135
310.086
310.01
310.059
310.234
310.549
310.788
310.833
310.924
311.017
311.008
310.887
310.665
310.561
311.032
311.088
311.187
311.196
311.13
311.022
311.153
311.238
311.327
311.373
311.321
311.268
311.538
311.569
311.577
311.502
311.408
311.319
311.551
311.619
311.642
311.599
311.479
311.409
311.723
311.781
311.878
311.897
311.867
311.82
312.049
311.975
311.93
311.851
311.714
311.631
311.633
311.723
311.916
312.092
312.273
312.514
312.827
312.362
312.086
311.849
311.634
311.534
311.395
311.469
311.639
311.84
312.074
312.732
312.604
311.749
311.545
311.357
311.185
311.101
310.428
310.499
310.714
311.003
311.274
312.354
311.956
310.571
310.289
310.172
310.108
310.088
310.309
310.347
310.467
310.578
310.655
311.849
311.95
311.817
311.691
311.468
311.05
310.691
311.161
311.577
311.882
312.108
312.316
312.54
313.048
312.622
312.268
311.922
311.497
311.005
310.754
311.24
311.793
312.239
312.694
313.285
313.188
312.423
311.963
311.468
310.935
310.526
310.332
310.653
311.104
311.574
312.024
312.989
312.703
311.581
311.173
310.769
310.411
310.168
310.051
310.233
310.503
310.81
311.137
312.332
311.858
310.788
310.446
310.125
309.852
309.673
309.623
309.747
309.934
310.158
310.411
311.471
311.278
310.517
310.208
309.932
309.705
309.558
309.556
309.717
309.953
310.231
310.535
310.947
310.799
310.497
310.229
309.979
309.755
309.586
309.624
309.79
309.992
310.205
310.43
310.68
310.51
310.326
310.161
309.995
309.823
309.666
309.641
309.758
309.891
310.017
310.151
310.312
310.287
309.965
309.777
309.613
309.506
309.47
309.625
309.674
309.784
309.927
310.09
310.454
310.74
310.398
310.21
310.044
309.927
309.885
310.11
310.157
310.294
310.481
310.69
311.025
311.263
310.98
310.757
310.546
310.375
310.314
310.501
310.587
310.783
310.989
311.176
311.364
311.441
311.337
311.196
311
310.783
310.672
310.834
310.973
311.263
311.573
311.862
312.119
313.527
313.071
312.586
312.055
311.608
311.435
311.404
311.521
311.918
312.521
313.186
313.814
313.533
312.801
312.187
311.662
311.317
311.218
311.054
311.152
311.475
311.935
312.456
313.075
312.57
312.092
311.681
311.295
311
310.901
310.791
310.889
311.154
311.474
311.787
312.118
311.842
311.585
311.33
311.043
310.795
310.705
310.637
310.716
310.951
311.222
311.47
311.728
311.596
311.39
311.181
310.946
310.714
310.6
310.487
310.552
310.743
311.013
311.364
311.823
312.082
311.265
310.742
310.453
310.324
310.287
310.106
310.142
310.267
310.545
310.933
311.711
312.064
311.586
311.294
310.993
310.732
310.639
311.244
311.316
311.517
311.797
312.084
312.367
312.6
312.474
312.191
311.876
311.64
311.555
311.86
311.956
312.229
312.559
312.784
312.826
313.092
313.087
312.902
312.58
312.277
312.154
311.8
311.825
311.809
311.72
311.623
311.537
311.822
311.896
311.998
312.092
312.117
312.091
312.027
312.087
312.176
312.188
312.161
312.131
312.392
312.31
312.257
312.178
312.045
311.959
311.966
312.068
312.273
312.466
312.676
312.95
313.381
312.864
312.512
312.232
311.989
311.878
311.751
311.833
312.026
312.264
312.555
313.283
313.14
312.208
311.971
311.764
311.584
311.499
310.951
311.044
311.267
311.512
311.761
312.869
312.442
311.124
310.853
310.663
310.553
310.516
311.077
311.065
311.125
311.205
311.313
312.334
312.426
312.282
312.168
312.052
311.952
311.93
312.075
312.218
312.427
312.646
312.878
313.136
313.76
313.292
312.899
312.536
312.213
312
311.889
312.124
312.49
312.927
313.425
314.051
313.984
313.191
312.713
312.3
311.955
311.719
311.556
311.76
312.065
312.414
312.82
313.801
313.522
312.426
312.107
311.839
311.599
311.438
311.438
311.515
311.655
311.828
312.047
313.168
312.859
311.855
311.729
311.645
311.59
311.582
310.208
310.308
310.473
310.666
310.878
311.964
311.939
311.178
311.095
311.037
311.006
311.025
309.964
310.006
310.099
310.217
310.356
311.189
310.957
310.189
309.974
309.782
309.625
309.521
309.517
309.653
309.852
310.088
310.345
310.786
310.693
310.407
310.155
309.918
309.706
309.548
309.592
309.756
309.956
310.166
310.389
310.637
310.495
310.311
310.145
309.976
309.801
309.639
309.615
309.737
309.876
310.005
310.142
310.306
310.292
309.943
309.749
309.586
309.483
309.447
309.625
309.677
309.792
309.935
310.097
310.473
310.79
310.442
310.258
310.096
309.979
309.937
310.197
310.244
310.382
310.567
310.772
311.106
311.364
311.09
310.873
310.662
310.484
310.421
310.619
310.715
310.92
311.123
311.298
311.463
311.589
311.497
311.36
311.157
310.926
310.801
310.969
311.13
311.465
311.824
312.162
312.481
313.772
313.283
312.757
312.194
311.728
311.55
311.494
311.618
312.032
312.65
313.307
313.925
313.827
313.085
312.47
311.947
311.704
311.761
313.609
316.857
327.045
361.006
438.782
431.321
348.833
320.479
314.203
312.548
312.095
312.614
315.386
335.013
418.285
403.155
326.687
313.874
312.624
312.47
313.059
313.114
313.869
323.544
393.678
397.14
324.67
314.56
313.826
313.797
315.285
315.365
316.705
331.389
412.038
410.465
330.837
316.705
315.369
315.207
315.134
315.02
315.157
315.36
316.537
329.194
406.044
395.751
324.293
314.601
313.831
313.704
312.978
313.195
314.156
324.734
398.745
409.777
328.235
314.261
312.769
312.415
312.255
313.033
316.218
337.865
427.84
443.793
356.1
324.872
316.536
314.149
317.63
323.194
337.308
374.336
453.849
455.911
377.06
337.48
322.564
316.714
313.859
316.658
325.775
359.86
447.33
432.925
341.663
317.114
313.254
312.345
312.466
312.902
314.81
331.343
416.677
405.691
327.095
314.51
313.267
312.981
313.668
313.858
314.814
325.776
400.476
403.925
328.208
316.47
315.434
315.238
315.092
313.553
312.821
312.238
311.828
311.788
312.179
311.391
311.455
311.729
312.227
312.84
313.495
313.246
312.556
311.982
311.527
311.271
311.205
311.024
311.08
311.303
311.703
312.203
312.855
312.428
311.881
311.473
311.129
310.924
310.869
310.772
310.822
310.998
311.272
311.58
312.049
311.809
311.429
311.181
310.95
310.782
310.722
310.751
310.842
311.07
311.343
311.606
311.864
311.717
311.399
311.141
310.88
310.683
310.624
310.553
310.596
310.751
310.992
311.293
311.927
311.974
311.426
311.06
310.781
310.594
310.538
310.369
310.401
310.519
310.74
311.138
312.227
312.549
311.748
311.335
310.926
310.685
310.621
310.718
310.811
311.105
311.515
311.873
312.318
312.546
312.373
312.082
311.755
311.529
311.454
311.808
311.888
312.143
312.484
312.73
312.747
312.974
313.026
312.85
312.508
312.212
312.11
312.432
312.548
312.876
313.21
313.346
313.262
313.642
313.727
313.606
313.267
312.9
312.754
312.484
312.618
312.949
313.277
313.448
313.417
313.811
313.853
313.699
313.359
312.994
312.831
312.457
312.48
312.46
312.379
312.289
312.204
312.532
312.533
312.547
312.528
312.434
312.363
312.332
312.417
312.559
312.651
312.724
312.809
313.451
313.127
312.888
312.67
312.444
312.318
312.263
312.382
312.666
313.006
313.414
313.985
313.893
313.083
312.739
312.454
312.223
312.121
311.909
311.991
312.185
312.419
312.693
313.728
313.441
312.26
311.995
311.747
311.526
311.43
311.012
311.068
311.228
311.419
311.652
312.978
312.868
312.022
311.912
311.767
311.655
311.64
312.394
312.427
312.546
312.679
312.812
312.949
313.783
313.446
313.188
312.944
312.713
312.546
312.526
312.784
313.157
313.573
314.022
314.512
314.841
314.161
313.608
313.115
312.696
312.427
312.334
312.568
312.962
313.441
313.978
314.801
314.634
313.616
313.153
312.749
312.426
312.243
312.179
312.294
312.524
312.821
313.176
314.337
313.963
312.791
312.548
312.36
312.223
312.168
312.338
312.32
312.36
312.44
312.571
313.631
313.519
312.864
312.819
312.815
312.84
312.907
312.183
312.115
312.087
312.088
312.127
312.837
312.152
311.951
311.938
311.922
311.901
311.881
311.494
311.477
311.479
311.488
311.506
311.883
311.25
310.793
310.753
310.725
310.713
310.732
309.902
309.929
309.994
310.081
310.184
310.751
310.581
310.099
309.91
309.737
309.59
309.491
309.511
309.652
309.846
310.063
310.293
310.584
310.58
310.335
310.119
309.914
309.719
309.559
309.614
309.779
309.959
310.131
310.302
310.48
310.307
310.131
309.994
309.862
309.718
309.59
309.429
309.464
309.563
309.729
309.931
310.303
310.5
310.117
309.956
309.81
309.687
309.631
310.001
310.042
310.159
310.317
310.494
310.841
311.177
310.85
310.654
310.474
310.335
310.285
310.524
310.589
310.768
310.972
311.178
311.434
311.498
311.364
311.218
311.03
310.825
310.723
310.912
311.047
311.279
311.465
311.573
311.617
312.659
312.363
312.031
311.654
311.289
311.103
311.544
311.742
312.221
312.798
313.362
313.932
313.847
313.802
313.825
314.779
327.298
407.639
409.184
417.279
424.377
423.928
422.064
347.715
345
338.756
331.539
327.499
314.171
314.371
315.962
319.316
321.96
314.778
313.591
312.575
312.62
313.075
313.026
312.47
312.083
312.207
312.592
311.68
311.724
312.011
312.508
313.082
313.063
312.513
312.034
311.723
311.621
312.025
311.989
312.071
312.436
312.949
313.078
312.689
312.605
312.968
313.21
317.493
317.324
316.484
316.041
316.095
338.544
340.534
340.047
337.954
335.795
406.634
412.724
424.222
428.301
426.032
422.744
336.051
316.16
313.845
313.77
313.86
315.345
315.291
315.646
319.2
341.241
427.052
415.688
332.589
316.779
315.34
315.301
315.307
315.275
316.39
316.54
316.853
319.312
339.029
421.92
425.819
340.342
319.53
316.941
316.641
316.541
316.366
316.559
316.846
318.729
335.992
418.489
410.585
331.955
318.172
316.887
316.681
316.531
316.961
317.081
317.243
318.441
331.872
409.593
403.288
328.447
316.829
315.821
315.638
315.488
313.82
313.979
314.196
315.219
326.556
401.229
404.683
413.67
427.553
442.04
451.287
371.742
355.734
339.563
330.854
327.356
314.812
314.966
316.775
323.07
331.964
319.299
315.324
313.242
313.106
313.542
313.227
312.665
312.411
313.168
314.938
311.937
311.81
311.964
312.418
313.022
312.998
312.374
311.86
311.559
311.479
311.257
311.326
311.583
312.034
312.61
313.312
312.772
312.104
311.619
311.252
311.054
311.001
310.816
310.858
311.018
311.311
311.685
312.259
311.922
311.452
311.164
310.916
310.767
310.723
310.675
310.716
310.853
311.059
311.289
311.707
312.13
311.267
310.978
310.757
310.622
310.582
310.612
310.654
310.803
311.048
311.374
312.183
312.153
311.503
311.122
310.845
310.67
310.618
310.473
310.503
310.611
310.794
311.062
312.528
312.116
310.981
310.707
310.532
310.431
310.402
310.54
310.578
310.724
311.01
311.412
312.51
313.071
312.157
311.87
311.582
311.369
311.292
311.436
311.524
311.742
312.031
312.311
312.924
313.344
312.713
312.452
312.159
311.949
311.877
312.207
312.284
312.521
312.829
313.082
313.842
314.453
313.488
313.215
312.883
312.612
312.515
312.857
312.961
313.269
313.641
313.961
315.196
316.073
314.547
314.14
313.705
313.345
313.214
313.123
313.285
313.696
314.069
314.215
314.14
314.816
314.82
314.622
314.19
313.718
313.52
313.248
313.426
313.838
314.213
314.377
314.287
312.701
312.741
312.819
312.881
312.879
312.838
312.778
312.85
312.96
313.001
313.008
313.02
313.302
313.173
313.084
312.973
312.814
312.709
312.747
312.886
313.148
313.408
313.69
314.027
314.65
314.007
313.536
313.146
312.81
312.658
312.543
312.65
312.918
313.252
313.657
314.579
314.396
313.254
312.925
312.648
312.421
312.32
311.896
311.989
312.216
312.477
312.765
314.064
313.574
312.161
311.898
311.691
311.515
311.444
312.154
312.168
312.282
312.398
312.435
313.432
313.513
313.307
313.159
313.013
312.881
312.834
313.08
313.285
313.557
313.837
314.13
314.448
315.257
314.695
314.206
313.746
313.326
313.023
312.952
313.271
313.753
314.303
314.907
315.607
315.574
314.698
314.114
313.582
313.132
312.852
312.775
312.985
313.348
313.791
314.285
315.38
315.044
313.821
313.444
313.121
312.864
312.725
312.757
312.808
312.946
313.135
313.378
314.605
314.298
313.231
313.099
313.019
312.977
312.99
313.449
313.395
313.379
313.387
313.423
313.894
311.158
311.673
311.708
311.69
311.643
311.579
311.837
311.893
311.939
311.965
311.963
311.825
309.72
310.238
310.262
310.233
310.175
310.101
310.599
310.682
310.75
310.792
310.793
310.534
311.103
311.051
311.034
310.997
310.943
310.883
310.804
310.825
310.852
310.875
310.893
311.104
310.732
310.426
310.388
310.354
310.329
310.321
309.676
309.723
309.801
309.895
310
310.409
310.457
310.134
309.939
309.756
309.593
309.475
309.527
309.682
309.872
310.072
310.28
310.511
310.46
310.273
310.102
309.929
309.749
309.583
309.574
309.711
309.863
310.001
310.14
310.309
310.318
309.923
309.71
309.542
309.445
309.408
309.645
309.703
309.834
309.983
310.14
310.527
310.886
310.546
310.378
310.224
310.108
310.062
310.372
310.418
310.554
310.725
310.908
311.227
311.463
311.222
311.038
310.849
310.675
310.607
310.809
310.91
311.105
311.266
311.378
311.467
311.516
311.524
311.473
311.331
311.12
310.985
311.232
311.444
311.824
312.192
312.494
312.729
313.987
313.386
312.805
312.223
311.729
311.503
311.496
311.741
312.248
312.829
313.411
314.003
313.844
313.768
314.486
320.092
347.403
433.999
433.642
427.874
413.832
398.566
393.992
327.081
329.498
335.021
342.74
347.154
318.688
316.501
315.605
314.969
314.467
312.234
312.349
312.441
312.684
313.261
312.872
312.398
312.038
311.823
311.715
311.568
311.712
312.046
312.51
313.042
313.032
312.487
312.05
311.713
311.549
311.595
311.741
311.99
312.428
313.407
315.606
313.34
312.317
312.021
311.823
313.139
313.695
314.975
318.882
324.67
355.2
344.221
332.022
325.371
323.421
390.318
394.22
411.06
425.73
435.718
442.477
363.446
330.711
319.213
315.471
314.086
316.064
318.582
323.614
336.605
369.63
445.799
436.643
352.397
324.169
317.045
315.547
315.394
316.579
317.344
319.687
328.412
358.775
441.137
432.03
347.493
322.493
317.545
316.659
316.44
316.365
316.488
316.786
319.144
338.47
421.204
422.084
340.394
320.35
317.744
317.388
317.243
317.281
317.491
317.88
320.673
341.596
423.762
431.854
345.02
321.323
318.114
317.742
317.621
317.46
317.662
317.963
320.034
338.482
421.904
412.457
333.499
319.331
318.012
317.815
317.674
318.081
318.193
318.351
319.686
334.258
413.488
422.752
338.775
320.453
318.53
318.356
318.256
317.217
317.298
317.449
319.053
335.365
417.502
409.464
330.883
317.35
316.128
315.981
315.889
314.276
313.412
312.728
312.182
311.904
311.878
313.816
317.307
328.876
365.974
444.383
438.76
354.332
322.315
314.887
312.949
312.595
313.423
317.138
341.089
429.402
418.394
332.989
315.47
313.415
312.968
313.605
313.907
315.335
329.483
410.416
407.317
328.75
315.76
314.577
314.391
314.7
314.9
316.451
332.318
416.203
422.707
334.683
316.268
314.254
313.918
313.25
313.776
316.663
339.169
430.002
434.752
346.442
318.454
313.758
312.823
312.935
314.778
322.245
353.261
433.768
433.522
356.824
325.507
316.025
313.275
311.994
312.057
312.371
312.965
313.706
314.572
314.552
313.922
313.259
312.617
312.149
311.975
311.854
312.02
312.473
313.105
313.773
314.398
313.789
313.052
312.416
311.899
311.583
311.488
311.116
311.169
311.373
311.759
312.284
312.957
312.155
311.673
311.331
311.06
310.893
310.843
310.836
310.91
311.108
311.4
311.758
312.185
311.816
311.416
311.146
310.925
310.781
310.733
310.762
310.831
311.006
311.248
311.534
311.889
312.34
311.582
311.161
310.877
310.707
310.657
310.6
310.643
310.806
311.134
311.75
313.279
312.659
311.035
310.778
310.605
310.503
310.473
310.478
310.51
310.614
310.789
311.04
312.661
313.413
311.075
310.758
310.577
310.48
310.45
310.486
310.519
310.634
310.86
311.253
313.062
313.882
312.14
311.683
311.311
311.1
311.043
311.941
312.008
312.187
312.453
312.814
314.743
313.638
312.628
312.366
312.13
311.969
311.916
312.268
312.329
312.512
312.773
313.061
314.296
315.057
313.522
313.185
312.883
312.668
312.597
312.943
313.025
313.275
313.629
314.036
315.886
316.678
314.615
314.115
313.693
313.397
313.302
313.716
313.821
314.163
314.663
315.26
317.219
316.991
315.229
314.691
314.171
313.758
313.616
314.084
314.242
314.723
315.36
316.088
317.758
315.714
315.613
315.294
314.753
314.203
313.976
313.706
313.913
314.382
314.801
314.979
314.887
313.34
313.366
313.416
313.437
313.388
313.323
313.212
313.301
313.447
313.528
313.57
313.613
313.902
313.747
313.629
313.481
313.286
313.163
313.202
313.369
313.676
313.983
314.309
314.689
315.367
314.678
314.142
313.685
313.294
313.114
312.997
313.122
313.436
313.829
314.298
315.349
315.117
313.849
313.467
313.145
312.888
312.777
312.359
312.46
312.706
312.996
313.323
314.748
314.209
312.668
312.37
312.142
311.946
311.868
312.625
312.645
312.775
312.889
312.886
314.046
314.13
313.896
313.734
313.57
313.415
313.344
313.604
313.85
314.161
314.478
314.807
315.161
316.005
315.417
314.889
314.382
313.909
313.557
313.486
313.851
314.384
314.98
315.619
316.341
316.289
315.378
314.765
314.196
313.704
313.389
313.321
313.551
313.938
314.402
314.912
316.05
315.656
314.4
314.022
313.696
313.434
313.292
313.361
313.408
313.541
313.723
313.958
315.186
314.907
313.853
313.725
313.65
313.614
313.631
313.838
313.811
313.812
313.823
313.84
313.996
310.56
311.249
311.31
311.311
311.284
311.241
309.235
309.261
309.283
309.298
309.286
308.923
309.134
309.637
309.668
309.654
309.619
309.572
308.485
308.543
308.598
308.632
308.624
308.552
308.834
309.045
309.098
309.078
309.021
308.952
309.532
309.619
309.691
309.725
309.689
309.423
310.194
310.267
310.266
310.219
310.141
310.052
310.373
310.438
310.498
310.542
310.561
310.659
310.641
310.466
310.442
310.41
310.374
310.343
309.899
309.925
309.968
310.017
310.07
310.339
310.309
309.966
309.82
309.684
309.563
309.476
309.494
309.639
309.821
310.011
310.208
310.429
310.435
310.252
310.082
309.908
309.725
309.558
309.553
309.695
309.853
309.997
310.139
310.312
310.334
309.919
309.695
309.525
309.431
309.395
309.656
309.719
309.859
310.012
310.167
310.55
310.916
310.586
310.428
310.282
310.168
310.125
310.441
310.486
310.616
310.775
310.942
311.252
311.457
311.233
311.068
310.899
310.735
310.671
310.862
310.957
311.128
311.255
311.332
311.396
311.331
311.394
311.404
311.321
311.155
311.038
311.336
311.569
311.953
312.288
312.537
312.708
312.581
312.476
312.295
312.006
311.641
311.409
311.522
311.775
312.282
312.848
313.405
313.962
313.751
313.27
312.77
312.244
311.764
311.539
311.531
311.728
312.126
312.625
313.439
315.205
316.557
313.675
312.597
312.086
311.703
311.534
311.542
311.658
311.925
312.564
314.379
318.863
313.74
311.923
311.652
311.551
311.884
311.921
312.507
316.802
325.599
340.8
326.833
317.344
315.145
315.759
343.088
339.622
346.948
360.588
376.602
453.304
446.719
438.984
428.324
431.695
450.7
446.105
449.138
451.725
454.838
380.783
371.946
364.523
361.797
368.118
325.182
322.861
325.51
334.378
345.795
330.734
320.834
314.783
313.152
313.366
311.693
311.75
312.394
315.604
322.845
315.971
312.909
311.901
311.637
311.566
311.613
311.706
312.012
312.708
314.611
321.287
326.278
340.925
348.974
360.794
387.675
456.101
456.477
389.046
366.318
357.445
350.697
332.825
326.476
341.985
356.111
377.958
412.78
467.975
456.591
389.752
354.439
336.11
326.486
318.503
320.312
330.665
341.206
360.546
396.574
461.149
450.231
376.1
341.928
327.571
321.49
317.681
318.601
322.756
329.203
344.126
378.873
452.137
442.732
361.353
330.274
320.981
318.35
317.426
317.275
317.525
318.468
323.648
349.344
433.322
433.188
349.393
324.125
319.078
318.129
317.822
317.791
317.979
318.373
320.878
340.389
421.799
423.28
341.47
321.211
318.57
318.162
317.882
318.421
318.528
318.865
321.817
344.488
430.821
420.358
338.01
320.625
318.759
318.485
318.288
318.583
318.707
318.889
320.091
333.517
411.33
414.427
335.232
320.578
319.244
319.092
318.972
319.138
319.247
319.425
321.424
340.217
424.449
431.962
345.38
322.493
319.615
319.394
319.352
318.444
318.485
318.697
321.424
343.633
430.182
422.643
338.331
319.631
317.605
317.455
317.422
316.153
316.218
316.349
317.783
332.889
413.772
413.875
333.312
317.973
316.526
316.45
316.48
314.892
314.005
313.25
312.61
312.234
312.14
312.661
314.152
319.671
341.209
413.121
413.827
341.014
318.783
313.794
312.633
312.828
313.521
317.438
340.895
420.668
423.606
338.322
316.532
313.799
313.386
314.117
314.381
316.329
334.58
419.784
415.968
332.778
316.667
315.109
314.957
315.156
315.305
317.339
337.178
426.488
429.274
343.973
319.618
315.037
314.326
313.538
314.281
319.017
344.354
427.711
417.464
339.496
317.503
313.555
312.911
312.63
313.41
316.964
334.09
402.727
397.855
331.564
316.561
313.359
312.579
312.377
312.449
312.79
313.419
314.211
315.159
315.496
314.708
313.981
313.301
312.792
312.607
312.348
312.516
312.994
313.654
314.357
315.121
314.65
313.981
313.31
312.683
312.239
312.084
311.612
311.677
311.958
312.48
313.149
313.971
313.077
312.096
311.673
311.365
311.185
311.131
311.075
311.169
311.421
311.805
312.288
312.884
314.102
312.735
311.952
311.435
311.138
311.048
310.91
310.988
311.241
311.67
312.282
313.236
312.976
312.06
311.49