/*--------------------------------*- C++ -*----------------------------------*\
| =========                 |                                                 |
| \\      /  F ield         | OpenFOAM: The Open Source CFD Toolbox           |
|  \\    /   O peration     | Version:  2212                                  |
|   \\  /    A nd           | Website:  www.openfoam.com                      |
|    \\/     M anipulation  |                                                 |
\*---------------------------------------------------------------------------*/
FoamFile
{
    version     2.0;
    format      ascii;
    arch        "LSB;label=32;scalar=64";
    class       volScalarField;
    location    "372";
    object      p;
}
// * * * * * * * * * * * * * * * * * * * * * * * * * * * * * * * * * * * * * //

dimensions      [0 2 -2 0 0 0 0];

internalField   nonuniform List<scalar> 
248319
(
0
0.0192838
0.0402737
0.0499155
0.0579552
0.0646579
0.0702517
0.109365
0.103299
0.0960256
0.0873031
0.0768436
0.0510533
0.0498414
0.0761442
0.0872778
0.0965742
0.104332
0.110803
0.0812663
0.0763964
0.070608
0.0636801
0.0553539
0.0331013
0.0137264
0.0280133
0.034226
0.0395257
0.0440902
0.0480639
0.0626257
0.0577878
0.0519902
0.0450514
0.0367428
0.019684
-0.0539485
-0.0471921
-0.0434474
-0.0403237
-0.037703
-0.0355271
-0.021226
-0.0246937
-0.0288523
-0.0338301
-0.0397957
-0.0507583
-0.0555444
-0.0402165
-0.033474
-0.0278589
-0.0231784
-0.0192618
0.0634676
0.0574281
0.0501796
0.0414886
0.0310671
0.000543224
0.03091
0.0593136
0.0692862
0.0776006
0.0845285
0.0903077
0.100135
0.0944885
0.0877133
0.0795861
0.0698422
0.0359008
0.0499504
0.0749739
0.0847371
0.0928744
0.0996584
0.105313
0.109528
0.103005
0.0951836
0.085807
0.0745674
0.0473137
0.0190797
0.0397522
0.0463794
0.0519058
0.0565887
0.0606375
-0.0356255
-0.0383562
-0.0410867
-0.0438153
-0.046546
-0.053571
-0.0514961
-0.0438464
-0.0414573
-0.0392167
-0.0370784
-0.0350137
-0.140377
-0.140787
-0.141177
-0.141547
-0.141886
-0.145263
-0.144829
-0.141952
-0.140972
-0.140158
-0.139477
-0.138904
-0.132513
-0.133791
-0.135337
-0.137175
-0.139385
-0.144443
-0.145908
-0.139378
-0.136704
-0.134476
-0.132606
-0.131065
-0.133983
-0.135621
-0.1376
-0.13996
-0.142805
-0.150191
-0.0695748
-0.0525713
-0.0457504
-0.0400645
-0.0353312
-0.0313688
0.0473192
0.0406988
0.0327581
0.0232271
0.0118004
-0.0194613
-0.00916241
0.0315386
0.0452752
0.0567288
0.0662797
0.0742422
0.0901737
0.0833684
0.0752075
0.0654158
0.0536724
0.0104109
0.00964921
0.0523086
0.0641466
0.0740135
0.0822368
0.089093
0.0978749
0.0922937
0.0855967
0.0775598
0.0679176
0.0344752
0.0489402
0.0735181
0.0833166
0.0914808
0.098284
0.103951
0.109473
0.102778
0.0947515
0.0851286
0.0735918
0.0456327
0.0147846
0.0354113
0.042197
0.0479101
0.0527918
0.0570382
-0.0392375
-0.0419538
-0.0446719
-0.0473904
-0.0501116
-0.0586961
-0.147629
-0.14332
-0.142601
-0.141882
-0.141164
-0.140446
-0.13944
-0.140143
-0.140843
-0.141542
-0.142242
-0.146191
-0.24401
-0.242361
-0.242287
-0.242213
-0.24214
-0.242066
-0.242965
-0.242953
-0.242919
-0.242859
-0.242762
-0.243762
-0.243305
-0.242401
-0.242276
-0.242169
-0.242085
-0.242017
-0.238684
-0.239006
-0.239387
-0.239852
-0.240404
-0.242617
-0.242873
-0.239819
-0.239099
-0.238496
-0.237997
-0.237571
-0.238126
-0.238595
-0.239159
-0.239827
-0.240628
-0.244235
-0.245661
-0.241499
-0.240522
-0.239713
-0.239029
-0.23847
-0.136207
-0.138051
-0.140269
-0.142925
-0.146114
-0.154314
-0.0773803
-0.0596625
-0.0525079
-0.0465422
-0.0415769
-0.0374305
0.0342307
0.0274533
0.0193193
0.00955483
-0.00214738
-0.0328343
-0.0252819
0.0126342
0.0266659
0.0383653
0.0481189
0.0562466
0.0568183
0.0485506
0.0386274
0.0267235
0.0124427
-0.0247372
-0.00913936
0.0306795
0.0447011
0.0563876
0.06613
0.074251
0.07392
0.0657182
0.0558771
0.0440713
0.0299018
-0.00977055
0.00871442
0.0514019
0.0634017
0.0733991
0.0817316
0.0886763
0.0975679
0.0919084
0.0851193
0.0769706
0.0671942
0.0335481
0.0480674
0.0729802
0.0829086
0.0911817
0.098077
0.10382
0.109421
0.102614
0.0944517
0.0846661
0.0729332
0.0445284
0.0132875
0.0339956
0.0409685
0.0468553
0.0518955
0.0562823
-0.0407211
-0.0434445
-0.0461674
-0.0488904
-0.051615
-0.060402
-0.148693
-0.144136
-0.143459
-0.142783
-0.142109
-0.141433
-0.242727
-0.242803
-0.242879
-0.242957
-0.243034
-0.245124
-0.2445
-0.242476
-0.242403
-0.24233
-0.242258
-0.242184
-0.34344
-0.343438
-0.343436
-0.343436
-0.343433
-0.344215
-0.343977
-0.343409
-0.34343
-0.34345
-0.343472
-0.343492
-0.34422
-0.344168
-0.344104
-0.344027
-0.343932
-0.344023
-0.343704
-0.343611
-0.343665
-0.343716
-0.343756
-0.343791
-0.341973
-0.34202
-0.342072
-0.342141
-0.342222
-0.34305
-0.343005
-0.341748
-0.341619
-0.341506
-0.341418
-0.341351
-0.341489
-0.341571
-0.341682
-0.341815
-0.341967
-0.343493
-0.343964
-0.342145
-0.341957
-0.341792
-0.341661
-0.341548
-0.340745
-0.340939
-0.341156
-0.341427
-0.341747
-0.343999
-0.246039
-0.241068
-0.23969
-0.238544
-0.237581
-0.236795
-0.134485
-0.136803
-0.139591
-0.142932
-0.146935
-0.156199
-0.0818083
-0.0632836
-0.0553167
-0.0486727
-0.0431506
-0.0385282
0.0239984
0.0175192
0.00974177
0.000409687
-0.0107759
-0.0404862
-0.034167
0.00128531
0.0136009
0.0238702
0.0324308
0.0395644
0.0405649
0.0333934
0.0247881
0.014464
0.00207932
-0.0330947
-0.0329167
0.00218815
0.01456
0.0248716
0.0334667
0.0406278
0.0567165
0.048413
0.0384487
0.0264959
0.0121531
-0.0248853
-0.0250601
0.0120356
0.026379
0.0383309
0.0482914
0.0565907
0.0737213
0.0655083
0.0556523
0.0438228
0.0296307
-0.0101247
0.00826252
0.0511043
0.0631409
0.0731662
0.0815249
0.0884879
0.0974401
0.0917613
0.0849498
0.076774
0.0669599
0.0331365
0.0476802
0.0727752
0.0827454
0.0910517
0.0979746
0.103742
0.109375
0.102523
0.0943055
0.0844531
0.0726417
0.0440571
0.0127309
0.0335551
0.0405967
0.0465428
0.051635
0.0560634
-0.0412065
-0.0439257
-0.046644
-0.049363
-0.0520838
-0.0610123
-0.149304
-0.144738
-0.144059
-0.143378
-0.142698
-0.142018
-0.243193
-0.243269
-0.243346
-0.243424
-0.2435
-0.24558
-0.344881
-0.344054
-0.344053
-0.344053
-0.344053
-0.344053
-0.343728
-0.343729
-0.343729
-0.343729
-0.34373
-0.344566
-0.444354
-0.444026
-0.444025
-0.444025
-0.444025
-0.444024
-0.443856
-0.443855
-0.443855
-0.443854
-0.443853
-0.444141
-0.444044
-0.443885
-0.443899
-0.443912
-0.443926
-0.443938
-0.444488
-0.444458
-0.444419
-0.444372
-0.444318
-0.444172
-0.444039
-0.444176
-0.444235
-0.444289
-0.444334
-0.444368
-0.443434
-0.443434
-0.443428
-0.443422
-0.443417
-0.443675
-0.443755
-0.443308
-0.443305
-0.44329
-0.443287
-0.443271
-0.443626
-0.443648
-0.443645
-0.443666
-0.443683
-0.444194
-0.444754
-0.444212
-0.444177
-0.444161
-0.444151
-0.444128
-0.444407
-0.444433
-0.444469
-0.444504
-0.44456
-0.445185
-0.445384
-0.44456
-0.444443
-0.44434
-0.444265
-0.444201
-0.338863
-0.33923
-0.339651
-0.340166
-0.340781
-0.343674
-0.245823
-0.239632
-0.23745
-0.235631
-0.234103
-0.232844
-0.124277
-0.12753
-0.131444
-0.13614
-0.141777
-0.154675
-0.082476
-0.0605979
-0.0513225
-0.0435874
-0.0371559
-0.03177
0.0162038
0.00999986
0.00255718
-0.00637258
-0.0170832
-0.0445758
-0.0406957
-0.0115023
-0.00119412
0.0074024
0.0145644
0.0205381
0.021264
0.0153438
0.00824277
-0.000280105
-0.0105022
-0.0395428
-0.039323
-0.0103375
-0.000137771
0.00836428
0.0154481
0.0213545
0.0213252
0.0154217
0.00834609
-0.000149019
-0.0103468
-0.0393617
-0.0329763
0.00217376
0.0145355
0.0248381
0.0334209
0.0405734
0.0405196
0.0333678
0.0247878
0.0144871
0.0021261
-0.0330774
-0.025198
0.0119574
0.0262996
0.038251
0.0482092
0.0565063
0.0736185
0.0654029
0.0555443
0.0437117
0.0295166
-0.0103119
0.00806387
0.0509954
0.0630369
0.073069
0.0814327
0.0884005
0.0973827
0.0917012
0.0848837
0.0767026
0.0668841
0.0329833
0.047545
0.0727101
0.0826905
0.0910055
0.0979359
0.103709
0.109361
0.102493
0.0942562
0.0843801
0.0725415
0.0439099
0.0125725
0.033503
0.0405847
0.0465648
0.0516829
0.0561286
-0.0413644
-0.0440931
-0.046821
-0.0495487
-0.052278
-0.0612338
-0.149568
-0.145011
-0.144329
-0.143647
-0.142964
-0.142281
-0.24347
-0.243547
-0.243624
-0.243701
-0.243779
-0.245838
-0.345103
-0.344299
-0.344298
-0.344298
-0.344297
-0.344297
-0.444471
-0.444471
-0.444472
-0.444472
-0.444473
-0.444775
-0.444581
-0.44426
-0.44426
-0.44426
-0.444259
-0.444259
-0.543837
-0.543837
-0.543837
-0.543838
-0.543838
-0.543975
-0.543782
-0.54364
-0.543639
-0.543639
-0.543638
-0.543638
-0.543512
-0.543512
-0.543513
-0.543512
-0.543512
-0.543636
-0.543595
-0.543546
-0.543551
-0.543558
-0.543564
-0.54357
-0.543944
-0.543928
-0.54391
-0.543885
-0.543857
-0.543726
-0.543744
-0.543887
-0.543927
-0.543953
-0.543972
-0.544004
-0.543666
-0.54365
-0.543659
-0.543646
-0.543639
-0.543684
-0.544001
-0.543909
-0.543903
-0.543919
-0.5439
-0.543908
-0.544644
-0.544635
-0.544655
-0.544644
-0.54465
-0.544685
-0.545675
-0.545754
-0.545753
-0.545756
-0.545745
-0.545749
-0.54707
-0.547075
-0.54708
-0.547081
-0.547088
-0.54687
-0.548127
-0.548463
-0.548436
-0.548431
-0.548411
-0.5484
-0.549303
-0.549327
-0.549367
-0.549401
-0.549452
-0.549089
-0.445329
-0.444129
-0.443854
-0.443629
-0.443444
-0.443286
-0.336051
-0.33671
-0.337481
-0.338416
-0.339542
-0.343303
-0.246644
-0.238944
-0.235629
-0.232862
-0.230546
-0.228625
-0.121725
-0.125765
-0.13063
-0.136468
-0.143471
-0.159692
-0.109564
-0.0814865
-0.0711693
-0.0625634
-0.055391
-0.0494084
-0.0144803
-0.0204026
-0.0274962
-0.0360132
-0.0462265
-0.0736221
-0.0681594
-0.0358097
-0.0257584
-0.0173803
-0.0103917
-0.00456296
-0.00459468
-0.0104132
-0.0173871
-0.0257545
-0.0357995
-0.0676262
-0.0675465
-0.03582
-0.0257745
-0.0174041
-0.0104285
-0.00461382
-0.00466572
-0.0104787
-0.0174563
-0.0258234
-0.0358671
-0.0676196
-0.0677135
-0.0359265
-0.025877
-0.0175043
-0.0105267
-0.0047109
0.0212842
0.0153808
0.00830292
-0.000194429
-0.0103946
-0.0394443
-0.0395095
-0.0104363
-0.000234778
0.00826683
0.0153497
0.0212529
0.0404861
0.0333318
0.0247477
0.014446
0.0020831
-0.0331504
-0.0252786
0.0119114
0.0262523
0.038203
0.0481618
0.056461
0.0735668
0.0653514
0.0554929
0.0436625
0.0294684
-0.0103983
0.00798946
0.0509553
0.062996
0.0730296
0.0813936
0.0883611
0.0973605
0.0916778
0.0848591
0.0766784
0.0668641
0.0329412
0.0475125
0.0726943
0.0826742
0.0909901
0.0979207
0.103696
0.10935
0.10248
0.0942407
0.0843607
0.0725194
0.0438769
0.0125388
0.0334942
0.0405801
0.0465623
0.0516834
0.0561304
-0.0413955
-0.044127
-0.0468558
-0.0495844
-0.0523158
-0.0612792
-0.149655
-0.145106
-0.144423
-0.14374
-0.143058
-0.142375
-0.243602
-0.24368
-0.243756
-0.243834
-0.243912
-0.245955
-0.345236
-0.344446
-0.344445
-0.344445
-0.344444
-0.344444
-0.444639
-0.444639
-0.444639
-0.44464
-0.44464
-0.44493
-0.544393
-0.544287
-0.544287
-0.544286
-0.544286
-0.544286
-0.544058
-0.544058
-0.544058
-0.544059
-0.544059
-0.544179
-0.643293
-0.643253
-0.643253
-0.643253
-0.643252
-0.643252
-0.642956
-0.642956
-0.642956
-0.642957
-0.642957
-0.643016
-0.642808
-0.642738
-0.642737
-0.642737
-0.642736
-0.642736
-0.642605
-0.642605
-0.642605
-0.642606
-0.642607
-0.642673
-0.642643
-0.642612
-0.642613
-0.642614
-0.642615
-0.642618
-0.642851
-0.642843
-0.642837
-0.642829
-0.642817
-0.642743
-0.642858
-0.642956
-0.642966
-0.642979
-0.642999
-0.642999
-0.643042
-0.64305
-0.643039
-0.643041
-0.643039
-0.643012
-0.643533
-0.643585
-0.643591
-0.643587
-0.643587
-0.643587
-0.644655
-0.64466
-0.644651
-0.644662
-0.644653
-0.644478
-0.645908
-0.646292
-0.646295
-0.646283
-0.646292
-0.646288
-0.648491
-0.648493
-0.648498
-0.648502
-0.648499
-0.647851
-0.650218
-0.651161
-0.651164
-0.651158
-0.65115
-0.651154
-0.653661
-0.653662
-0.65367
-0.653675
-0.65368
-0.652526
-0.653248
-0.654562
-0.654536
-0.654527
-0.654505
-0.654502
-0.548963
-0.549035
-0.549116
-0.549208
-0.549322
-0.549094
-0.445062
-0.443221
-0.442651
-0.442174
-0.441777
-0.441454
-0.332402
-0.333555
-0.334906
-0.336544
-0.338511
-0.343575
-0.247292
-0.235367
-0.230326
-0.226123
-0.222604
-0.219697
-0.12568
-0.130337
-0.135922
-0.142624
-0.150662
-0.170129
-0.126764
-0.0995768
-0.0890702
-0.0803102
-0.0730078
-0.0669217
-0.0553517
-0.0619195
-0.0698088
-0.0792668
-0.0906153
-0.121099
-0.102525
-0.0664739
-0.0549316
-0.0453064
-0.0372848
-0.0305949
-0.0307528
-0.0374054
-0.045388
-0.0549642
-0.0664538
-0.101789
-0.101681
-0.0665601
-0.0550702
-0.045492
-0.0375087
-0.0308571
-0.0309382
-0.0375908
-0.0455754
-0.0551535
-0.0666476
-0.101741
-0.101835
-0.0667121
-0.0552125
-0.045634
-0.0376466
-0.0309916
-0.0310242
-0.0376791
-0.0456689
-0.0552524
-0.0667575
-0.101906
-0.0677817
-0.0359704
-0.0259158
-0.0175381
-0.0105583
-0.00473933
-0.00475262
-0.010575
-0.017557
-0.02594
-0.0359947
-0.0678238
-0.0395484
-0.0104597
-0.00025559
0.0082441
0.0153318
0.0212343
0.0404673
0.0333109
0.0247254
0.0144218
0.00205586
-0.033195
-0.025322
0.0118848
0.0262276
0.0381791
0.0481398
0.0564369
0.0735445
0.0653295
0.0554711
0.0436408
0.0294472
-0.0104339
0.00796767
0.0509424
0.0629811
0.0730146
0.0813784
0.0883436
0.0973516
0.0916688
0.0848527
0.0766736
0.0668584
0.0329364
0.0475124
0.0726899
0.0826707
0.0909872
0.0979159
0.103691
0.109346
0.102476
0.0942357
0.0843554
0.0725135
0.0438841
0.0125593
0.0335264
0.0406188
0.0466047
0.0517271
0.0561759
-0.0413841
-0.0441137
-0.0468422
-0.0495732
-0.0523055
-0.0612693
-0.14967
-0.145127
-0.144444
-0.143759
-0.143076
-0.142394
-0.243653
-0.24373
-0.243807
-0.243886
-0.243963
-0.245998
-0.345312
-0.34453
-0.34453
-0.344529
-0.344529
-0.344528
-0.444776
-0.444776
-0.444776
-0.444777
-0.444778
-0.445056
-0.544621
-0.544531
-0.544531
-0.54453
-0.54453
-0.544529
-0.64411
-0.64411
-0.64411
-0.644111
-0.644112
-0.644088
-0.64365
-0.643638
-0.643638
-0.643637
-0.643637
-0.643637
-0.742966
-0.742967
-0.742967
-0.742968
-0.742969
-0.742897
-0.742261
-0.742281
-0.742281
-0.74228
-0.74228
-0.74228
-0.741802
-0.741802
-0.741802
-0.741802
-0.741803
-0.741819
-0.741534
-0.741497
-0.741497
-0.741496
-0.741496
-0.741496
-0.741321
-0.741321
-0.741322
-0.741323
-0.741324
-0.741367
-0.741316
-0.741282
-0.741281
-0.74128
-0.741281
-0.74128
-0.741385
-0.741385
-0.741385
-0.741386
-0.741386
-0.741371
-0.741522
-0.741566
-0.741567
-0.74157
-0.741573
-0.741575
-0.74185
-0.74185
-0.741849
-0.741848
-0.741849
-0.7418
-0.742434
-0.742554
-0.742551
-0.742546
-0.742555
-0.74255
-0.743803
-0.743797
-0.743798
-0.743794
-0.743804
-0.743529
-0.745222
-0.745735
-0.745727
-0.745739
-0.74573
-0.745736
-0.748483
-0.748482
-0.748486
-0.748478
-0.748482
-0.747636
-0.750756
-0.752032
-0.752027
-0.752027
-0.752027
-0.752028
-0.755842
-0.755856
-0.755839
-0.755852
-0.755851
-0.754173
-0.757045
-0.758337
-0.758337
-0.758323
-0.758337
-0.758323
-0.752379
-0.752384
-0.752383
-0.7524
-0.752401
-0.750944
-0.650152
-0.651463
-0.651406
-0.651372
-0.651329
-0.651311
-0.546549
-0.546724
-0.546902
-0.547121
-0.547394
-0.547588
-0.444613
-0.441811
-0.440736
-0.439838
-0.439087
-0.438474
-0.328992
-0.330799
-0.332957
-0.335557
-0.338668
-0.345487
-0.255368
-0.239723
-0.233211
-0.227782
-0.223252
-0.219482
-0.140956
-0.146837
-0.15388
-0.162341
-0.172478
-0.201283
-0.161014
-0.133931
-0.123837
-0.115417
-0.108396
-0.102536
-0.0845221
-0.0909512
-0.0986602
-0.107907
-0.118994
-0.153273
-0.152033
-0.118427
-0.10753
-0.0984441
-0.0908726
-0.0845603
-0.0557021
-0.0621181
-0.0698251
-0.0790678
-0.0901573
-0.119904
-0.119728
-0.0902003
-0.0791388
-0.0699195
-0.062237
-0.0558358
-0.0559383
-0.062338
-0.0700163
-0.0792329
-0.0902896
-0.119796
-0.11989
-0.0903647
-0.0793047
-0.0700857
-0.0624027
-0.0560033
-0.0560407
-0.0624422
-0.070128
-0.079352
-0.0904172
-0.119961
-0.120003
-0.0904453
-0.0793788
-0.0701506
-0.0624645
-0.0560578
-0.0310394
-0.0376941
-0.0456864
-0.0552728
-0.066783
-0.101951
-0.101975
-0.0667926
-0.0552816
-0.0456951
-0.0377028
-0.0310425
-0.00476247
-0.0105806
-0.0175657
-0.0259488
-0.036006
-0.0678486
-0.0395701
-0.0104708
-0.000264462
0.00823752
0.015323
0.0212287
0.0404579
0.0333028
0.0247139
0.0144094
0.00204196
-0.0332208
-0.0253464
0.0118712
0.0262151
0.038166
0.0481272
0.0564264
0.0735353
0.0653201
0.0554601
0.0436338
0.029439
-0.0104493
0.00796198
0.0509392
0.0629779
0.0730088
0.0813708
0.0883378
0.0973466
0.0916657
0.0848516
0.0766735
0.0668585
0.0329397
0.0475153
0.0726898
0.0826708
0.0909859
0.0979152
0.103689
0.10934
0.102469
0.0942308
0.0843518
0.0725101
0.0438853
0.0125687
0.0335316
0.0406234
0.0466105
0.0517301
0.0561768
-0.0413652
-0.0440946
-0.0468242
-0.0495554
-0.052289
-0.0612507
-0.149663
-0.145123
-0.14444
-0.143755
-0.14307
-0.142388
-0.243673
-0.243749
-0.243828
-0.243907
-0.243984
-0.246014
-0.345362
-0.344586
-0.344585
-0.344585
-0.344584
-0.344584
-0.444895
-0.444896
-0.444896
-0.444897
-0.444897
-0.445168
-0.544859
-0.544792
-0.544792
-0.544791
-0.544791
-0.544791
-0.644657
-0.644657
-0.644657
-0.644658
-0.644659
-0.644584
-0.74474
-0.745003
-0.745002
-0.745001
-0.745001
-0.745001
-0.743889
-0.743889
-0.74389
-0.743891
-0.743892
-0.743738
-0.843907
-0.844258
-0.844257
-0.844256
-0.844255
-0.844255
-0.842528
-0.842528
-0.842529
-0.84253
-0.842531
-0.842347
-0.841235
-0.841314
-0.841313
-0.841312
-0.841312
-0.841312
-0.84053
-0.84053
-0.84053
-0.840531
-0.840531
-0.840512
-0.840081
-0.840069
-0.840068
-0.840068
-0.840067
-0.840067
-0.839812
-0.839813
-0.839813
-0.839814
-0.839815
-0.839844
-0.839751
-0.839713
-0.839712
-0.83971
-0.839708
-0.839706
-0.839718
-0.839722
-0.839727
-0.839731
-0.839737
-0.839756
-0.839905
-0.839911
-0.839911
-0.839904
-0.839901
-0.839899
-0.840258
-0.840263
-0.840254
-0.840258
-0.84026
-0.840215
-0.84085
-0.84098
-0.840974
-0.840977
-0.840982
-0.840977
-0.842204
-0.842204
-0.842212
-0.842201
-0.842208
-0.841926
-0.843608
-0.844127
-0.844126
-0.844126
-0.844127
-0.844122
-0.846928
-0.846943
-0.846929
-0.846936
-0.84694
-0.846063
-0.849308
-0.850703
-0.850691
-0.850693
-0.8507
-0.850693
-0.855023
-0.855013
-0.855019
-0.85501
-0.855022
-0.852881
-0.856075
-0.858709
-0.858705
-0.858703
-0.858703
-0.858705
-0.859287
-0.859291
-0.859288
-0.859291
-0.859289
-0.858063
-0.90126
-0.90167
-0.901658
-0.901648
-0.901638
-0.901631
-0.92513
-0.93381
-0.941048
-0.947083
-0.952111
-0.952109
-0.947082
-0.941051
-0.933819
-0.925142
-0.925153
-0.933828
-0.941063
-0.947086
-0.952102
-0.952103
-0.94708
-0.94106
-0.933832
-0.92517
-0.925185
-0.933843
-0.941068
-0.947075
-0.952093
-0.952248
-0.947084
-0.940893
-0.933459
-0.924542
-0.925766
-0.93447
-0.941728
-0.94777
-0.952808
-0.90995
-0.903515
-0.895794
-0.886528
-0.875407
-0.848823
-0.805086
-0.838042
-0.851606
-0.862912
-0.872332
-0.880179
-0.880017
-0.872004
-0.862382
-0.850839
-0.836986
-0.837533
-0.8512
-0.862589
-0.872081
-0.879988
-0.880004
-0.872094
-0.862599
-0.851204
-0.837531
-0.837532
-0.851212
-0.862607
-0.872103
-0.880018
-0.880036
-0.872116
-0.862614
-0.851211
-0.837532
-0.83753
-0.851212
-0.862617
-0.872121
-0.88004
-0.865309
-0.856819
-0.846632
-0.834406
-0.819735
-0.819736
-0.834403
-0.846627
-0.856814
-0.865301
-0.865292
-0.856806
-0.846621
-0.8344
-0.819736
-0.819732
-0.834395
-0.846613
-0.856793
-0.865278
-0.86526
-0.856781
-0.846603
-0.834388
-0.819731
-0.818247
-0.833336
-0.845911
-0.856386
-0.865113
-0.865071
-0.856239
-0.845639
-0.832915
-0.817647
-0.782423
-0.782356
-0.782428
-0.782414
-0.782395
-0.782376
-0.782373
-0.718851
-0.718908
-0.718954
-0.719023
-0.719101
-0.718008
-0.636473
-0.636873
-0.636497
-0.636198
-0.635928
-0.63572
-0.536335
-0.537047
-0.537877
-0.538901
-0.540109
-0.542448
-0.44618
-0.439754
-0.436595
-0.43397
-0.431764
-0.429939
-0.321637
-0.325343
-0.329775
-0.335103
-0.341486
-0.35664
-0.302177
-0.27401
-0.264409
-0.256409
-0.249735
-0.244173
-0.20407
-0.209651
-0.216362
-0.224406
-0.234046
-0.260252
-0.222141
-0.195126
-0.18514
-0.176811
-0.16987
-0.164082
-0.15028
-0.156542
-0.164049
-0.173056
-0.183861
-0.214799
-0.191921
-0.153464
-0.141741
-0.131968
-0.123821
-0.11703
-0.116793
-0.123481
-0.131497
-0.141119
-0.152663
-0.190299
-0.189933
-0.152614
-0.141105
-0.131512
-0.123523
-0.116857
-0.0846845
-0.0909828
-0.0985438
-0.107617
-0.118499
-0.151857
-0.151909
-0.118587
-0.107709
-0.0986423
-0.0910864
-0.0847948
-0.0848642
-0.091159
-0.0987174
-0.107786
-0.118673
-0.152009
-0.152087
-0.118728
-0.107837
-0.0987653
-0.0912044
-0.0849076
-0.0849274
-0.091227
-0.0987936
-0.107865
-0.118761
-0.152134
-0.152162
-0.118778
-0.107882
-0.0988079
-0.0912392
-0.0849361
-0.0560653
-0.0624748
-0.0701632
-0.0793914
-0.0904599
-0.120028
-0.120039
-0.0904661
-0.079394
-0.0701671
-0.0624764
-0.056067
-0.0310449
-0.0377051
-0.0456976
-0.0552888
-0.0667981
-0.101987
-0.0678584
-0.0360119
-0.025952
-0.0175715
-0.0105838
-0.00476568
0.0212251
0.0153193
0.00823371
-0.000270409
-0.0104756
-0.0395803
-0.0332342
0.00203497
0.0144028
0.0247075
0.0332985
0.0404543
0.0564241
0.0481209
0.0381599
0.0262106
0.0118665
-0.0253573
-0.0104542
0.0294385
0.0436334
0.055459
0.0653149
0.0735302
0.0883325
0.0813678
0.0730084
0.0629775
0.0509393
0.00796208
0.0329427
0.06686
0.0766714
0.0848488
0.0916638
0.0973417
0.103686
0.097912
0.0909818
0.0826689
0.0726915
0.0475188
0.0438901
0.0725103
0.0843498
0.0942262
0.102464
0.109335
0.0561857
0.0517395
0.0466191
0.0406324
0.033541
0.0125802
-0.0612364
-0.0522763
-0.0495434
-0.0468135
-0.0440814
-0.0413508
-0.142381
-0.143064
-0.143747
-0.144431
-0.145116
-0.149655
-0.246022
-0.243992
-0.243914
-0.243836
-0.243758
-0.243681
-0.344625
-0.344625
-0.344625
-0.344626
-0.344626
-0.345398
-0.445268
-0.445006
-0.445005
-0.445005
-0.445005
-0.445004
-0.545045
-0.545045
-0.545045
-0.545045
-0.545046
-0.54509
-0.645084
-0.645213
-0.645212
-0.645212
-0.645211
-0.645211
-0.746163
-0.746163
-0.746164
-0.746164
-0.746164
-0.745777
-0.847896
-0.848768
-0.848768
-0.848767
-0.848767
-0.848767
-0.84643
-0.84643
-0.84643
-0.846431
-0.846432
-0.84584
-0.948388
-0.949566
-0.949565
-0.949565
-0.949564
-0.949564
-0.945537
-0.945537
-0.945538
-0.945539
-0.94554
-0.94486
-0.942144
-0.942493
-0.942492
-0.94249
-0.94249
-0.942489
-0.94046
-0.94046
-0.940461
-0.940463
-0.940464
-0.940306
-0.939177
-0.939232
-0.939231
-0.939231
-0.93923
-0.93923
-0.938541
-0.938541
-0.938541
-0.938542
-0.938543
-0.938536
-0.938198
-0.938179
-0.938178
-0.938177
-0.938176
-0.938176
-0.938001
-0.938005
-0.938007
-0.938008
-0.938012
-0.938046
-0.937998
-0.937966
-0.937958
-0.937953
-0.937947
-0.937941
-0.93808
-0.938084
-0.938088
-0.938094
-0.938104
-0.938113
-0.938383
-0.938416
-0.93841
-0.938409
-0.93841
-0.93841
-0.939015
-0.939015
-0.939015
-0.939019
-0.939016
-0.938914
-0.939802
-0.940025
-0.940034
-0.940023
-0.940031
-0.940027
-0.941624
-0.941618
-0.941618
-0.941622
-0.941623
-0.941202
-0.94328
-0.944
-0.943998
-0.943999
-0.943986
-0.944002
-0.947258
-0.947254
-0.947264
-0.947266
-0.947259
-0.946053
-0.94914
-0.951286
-0.95129
-0.951292
-0.951282
-0.951285
-0.955734
-0.955719
-0.955733
-0.955729
-0.955728
-0.951681
-0.967776
-0.985695
-0.991836
-0.996956
-1.00122
-1.00478
-1.00421
-1.00421
-1.00421
-1.00421
-1.00421
-1.0007
-1.00071
-1.00071
-1.00071
-1.00072
-0.996521
-0.996515
-0.996506
-0.996499
-0.99649
-0.991435
-0.991448
-0.991458
-0.991479
-0.991497
-0.985457
-0.985427
-0.985404
-0.98539
-0.985369
-0.969981
-0.969983
-0.970003
-0.970016
-0.970031
-1.05322
-1.05319
-1.05318
-1.05318
-1.05316
-1.05717
-1.05718
-1.05721
-1.05723
-1.05727
-1.05972
-1.0597
-1.05968
-1.05966
-1.05965
-1.06172
-1.06172
-1.06174
-1.06175
-1.06176
-1.06347
-1.06346
-1.06345
-1.06344
-1.06344
-1.06487
-1.06488
-1.06487
-1.06489
-1.06489
-1.06535
-1.06389
-1.06212
-1.06001
-1.05746
-1.05289
-1.05264
-1.05805
-1.06064
-1.0628
-1.06459
-1.06608
-1.00588
-1.0024
-0.998222
-0.993205
-0.987182
-0.965476
-0.902071
-0.90499
-0.929566
-0.937326
-0.943796
-0.949183
-0.953666
-0.910435
-0.904666
-0.897744
-0.889439
-0.879473
-0.851481
-0.807369
-0.841183
-0.853845
-0.864399
-0.87319
-0.880518
-0.865287
-0.856771
-0.846551
-0.834287
-0.819568
-0.784434
-0.78335
-0.818607
-0.833643
-0.846172
-0.856612
-0.865307
-0.865138
-0.856126
-0.845306
-0.83232
-0.816735
-0.781295
-0.780856
-0.817175
-0.832642
-0.84553
-0.856265
-0.865213
-0.865357
-0.865371
-0.865382
-0.865387
-0.865393
-0.856644
-0.85664
-0.856636
-0.856629
-0.856619
-0.846134
-0.846138
-0.84614
-0.84614
-0.846142
-0.833538
-0.83354
-0.833545
-0.833547
-0.833548
-0.818449
-0.818439
-0.818432
-0.818421
-0.818414
-0.780382
-0.780412
-0.780448
-0.780501
-0.780552
-0.716476
-0.716206
-0.715977
-0.71579
-0.715627
-0.630748
-0.631277
-0.631919
-0.632669
-0.633589
-0.634444
-0.541672
-0.537062
-0.534674
-0.532677
-0.53103
-0.529633
-0.420822
-0.42375
-0.427286
-0.431529
-0.436604
-0.447974
-0.370562
-0.352067
-0.344568
-0.338322
-0.333109
-0.328759
-0.270612
-0.275954
-0.282364
-0.290052
-0.299276
-0.325143
-0.317682
-0.28802
-0.278418
-0.270412
-0.26374
-0.258178
-0.220294
-0.22657
-0.234101
-0.243137
-0.253972
-0.292189
-0.251787
-0.218304
-0.207741
-0.19893
-0.191582
-0.18546
-0.184891
-0.190866
-0.198031
-0.206629
-0.21694
-0.249851
-0.212914
-0.182775
-0.172279
-0.163535
-0.156239
-0.150163
-0.150137
-0.156182
-0.16343
-0.172123
-0.182561
-0.212422
-0.212364
-0.182566
-0.172145
-0.163462
-0.156227
-0.15019
-0.116948
-0.123604
-0.131589
-0.141172
-0.152673
-0.189914
-0.189995
-0.152745
-0.141243
-0.131658
-0.123673
-0.117015
-0.117058
-0.12372
-0.131707
-0.141297
-0.152799
-0.190068
-0.190119
-0.152834
-0.141329
-0.131736
-0.123744
-0.117085
-0.117096
-0.123756
-0.131751
-0.141343
-0.152853
-0.190146
-0.190158
-0.152861
-0.141349
-0.131755
-0.123759
-0.117099
-0.084939
-0.0912423
-0.0988107
-0.10789
-0.118784
-0.152174
-0.15218
-0.118787
-0.107892
-0.098809
-0.091243
-0.0849379
-0.0560644
-0.062474
-0.0701669
-0.0793945
-0.0904686
-0.120044
-0.101995
-0.0668028
-0.0552933
-0.0456997
-0.0377046
-0.0310475
-0.00476544
-0.0105907
-0.0175748
-0.0259581
-0.0360182
-0.0678671
-0.0395876
-0.0104795
-0.00027341
0.00822862
0.015319
0.0212216
0.0404532
0.0332953
0.0247055
0.0144013
0.00203164
-0.033241
-0.0253615
0.0118639
0.0262088
0.038159
0.0481182
0.0564229
0.0735264
0.0653131
0.0554598
0.0436323
0.0294387
-0.0104562
0.00796111
0.05094
0.0629765
0.0730087
0.0813661
0.0883304
0.0973382
0.0916612
0.0848453
0.0766688
0.0668589
0.0329445
0.0475221
0.0726901
0.0826664
0.0909806
0.0979093
0.103682
0.10933
0.10246
0.0942239
0.0843475
0.0725081
0.0438914
0.0125836
0.0335392
0.0406307
0.0466173
0.0517372
0.0561843
-0.041346
-0.0440753
-0.0468065
-0.0495377
-0.0522695
-0.0612276
-0.149651
-0.145112
-0.144426
-0.143742
-0.143059
-0.142375
-0.243687
-0.243764
-0.243841
-0.243919
-0.243998
-0.246027
-0.345426
-0.344657
-0.344656
-0.344656
-0.344655
-0.344655
-0.445093
-0.445093
-0.445093
-0.445094
-0.445094
-0.445347
-0.545278
-0.545253
-0.545253
-0.545252
-0.545252
-0.545252
-0.645677
-0.645677
-0.645678
-0.645678
-0.645678
-0.645505
-0.746664
-0.747163
-0.747163
-0.747162
-0.747162
-0.747162
-0.850823
-0.850823
-0.850823
-0.850824
-0.850824
-0.849685
-0.956351
-0.957525
-0.957547
-0.95757
-0.957594
-0.957619
-0.953954
-0.953955
-0.953955
-0.953955
-0.953956
-0.952456
-1.0617
-1.06205
-1.06212
-1.06218
-1.06225
-1.06232
-1.05458
-1.05458
-1.05458
-1.05458
-1.05458
-1.05338
-1.04658
-1.04775
-1.04775
-1.04775
-1.04775
-1.04775
-1.04283
-1.04283
-1.04283
-1.04283
-1.04283
-1.04225
-1.03947
-1.03972
-1.03972
-1.03972
-1.03972
-1.03972
-1.03792
-1.03792
-1.03792
-1.03792
-1.03792
-1.03783
-1.03694
-1.03696
-1.03696
-1.03696
-1.03696
-1.03696
-1.03647
-1.03647
-1.03647
-1.03647
-1.03647
-1.03648
-1.03626
-1.03624
-1.03624
-1.03623
-1.03623
-1.03623
-1.03612
-1.03612
-1.03612
-1.03613
-1.03614
-1.03617
-1.03622
-1.03621
-1.0362
-1.03619
-1.03619
-1.03619
-1.03641
-1.03641
-1.03641
-1.03641
-1.03641
-1.0364
-1.03675
-1.0368
-1.03681
-1.03681
-1.0368
-1.0368
-1.03746
-1.03746
-1.03747
-1.03746
-1.03746
-1.03732
-1.03826
-1.0385
-1.0385
-1.0385
-1.0385
-1.0385
-1.04006
-1.04007
-1.04006
-1.04007
-1.04007
-1.03966
-1.0416
-1.04226
-1.04225
-1.04225
-1.04225
-1.04225
-1.04506
-1.04507
-1.04506
-1.04507
-1.04507
-1.04393
-1.04734
-1.04863
-1.04863
-1.04863
-1.04864
-1.04863
-1.13721
-1.1372
-1.13721
-1.13721
-1.13721
-1.13825
-1.13594
-1.13353
-1.13244
-1.13154
-1.13078
-1.13015
-1.12984
-1.12982
-1.12983
-1.12981
-1.12982
-1.13042
-1.13042
-1.13043
-1.13044
-1.13046
-1.13118
-1.13116
-1.13116
-1.13114
-1.13114
-1.132
-1.132
-1.13202
-1.13204
-1.13206
-1.13312
-1.13309
-1.13306
-1.13304
-1.13303
-1.13512
-1.13513
-1.13514
-1.13516
-1.13517
-1.22036
-1.22034
-1.22033
-1.22032
-1.22031
-1.20694
-1.20696
-1.20698
-1.207
-1.20703
-1.20263
-1.2026
-1.20258
-1.20257
-1.20255
-1.1989
-1.19891
-1.19892
-1.19893
-1.19895
-1.19589
-1.19587
-1.19587
-1.19586
-1.19585
-1.1933
-1.19331
-1.19331
-1.19332
-1.19333
-1.19362
-1.19621
-1.1993
-1.20301
-1.20747
-1.22276
-1.22548
-1.20735
-1.20303
-1.19944
-1.19644
-1.19393
-1.13072
-1.13137
-1.13214
-1.13306
-1.13416
-1.13705
-1.13761
-1.13442
-1.13335
-1.13246
-1.13172
-1.1311
-1.06658
-1.06515
-1.06343
-1.06135
-1.05887
-1.05303
-0.965435
-0.98931
-0.994926
-0.999603
-1.0035
-1.00675
-1.00721
-1.00407
-1.00029
-0.995751
-0.99031
-0.967262
-0.90758
-0.931651
-0.938935
-0.945004
-0.950061
-0.954269
-0.910642
-0.905191
-0.898652
-0.890802
-0.881386
-0.852541
-0.807863
-0.842694
-0.854945
-0.865153
-0.87366
-0.880749
-0.865401
-0.857055
-0.847037
-0.835015
-0.820591
-0.785388
-0.784301
-0.819642
-0.834374
-0.846649
-0.856879
-0.8654
-0.880749
-0.873314
-0.864399
-0.853694
-0.84085
-0.805577
-0.805052
-0.839344
-0.85262
-0.86368
-0.872897
-0.880576
-0.880338
-0.872142
-0.862303
-0.850496
-0.836324
-0.802545
-0.798794
-0.796131
-0.795973
-0.795836
-0.795731
-0.795635
-0.834215
-0.849022
-0.861361
-0.871645
-0.880211
-0.880208
-0.871649
-0.861371
-0.849037
-0.834238
-0.834263
-0.849052
-0.86138
-0.871649
-0.880202
-0.880195
-0.871648
-0.861388
-0.849072
-0.834294
-0.834328
-0.849094
-0.861397
-0.871649
-0.880186
-0.880229
-0.871728
-0.861521
-0.849273
-0.834573
-0.871416
-0.883704
-0.89395
-0.90248
-0.90959
-0.909265
-0.902129
-0.893572
-0.88329
-0.870961
-0.870906
-0.883256
-0.893552
-0.902126
-0.909268
-0.909266
-0.902116
-0.893527
-0.883231
-0.870866
-0.870827
-0.883206
-0.893514
-0.902109
-0.909266
-0.909268
-0.902102
-0.893505
-0.883186
-0.870802
-0.837188
-0.837312
-0.837456
-0.837625
-0.837834
-0.840873
-0.812914