/*--------------------------------*- C++ -*----------------------------------*\
| =========                 |                                                 |
| \\      /  F ield         | OpenFOAM: The Open Source CFD Toolbox           |
|  \\    /   O peration     | Version:  2212                                  |
|   \\  /    A nd           | Website:  www.openfoam.com                      |
|    \\/     M anipulation  |                                                 |
\*---------------------------------------------------------------------------*/
FoamFile
{
    version     2.0;
    format      ascii;
    arch        "LSB;label=32;scalar=64";
    class       volScalarField;
    location    "372";
    object      T;
}
// * * * * * * * * * * * * * * * * * * * * * * * * * * * * * * * * * * * * * //

dimensions      [0 0 0 1 0 0 0];

internalField   nonuniform List<scalar> 
248319
(
311.239
311.191
310.729
310.479
310.245
310.099
310.05
310.035
310.092
310.267
310.513
310.788
311.223
311.054
310.511
310.258
310.135
310.076
310.077
310.379
310.411
310.496
310.598
310.713
310.887
310.862
310.717
310.663
310.635
310.593
310.572
310.311
310.294
310.312
310.343
310.423
310.973
311.417
311.007
310.696
310.443
310.315
310.288
310.422
310.493
310.678
310.922
311.171
311.545
311.693
311.449
311.198
310.929
310.72
310.643
310.565
310.62
310.782
310.997
311.226
311.602
311.375
310.936
310.726
310.523
310.355
310.288
310.204
310.254
310.402
310.601
310.817
311.519
311.293
310.635
310.371
310.144
309.995
309.947
310.007
310.003
310.054
310.174
310.472
311.126
310.983
310.799
310.663
310.527
310.405
310.347
310.72
310.824
310.949
311.079
311.219
311.372
311.322
311.16
311.038
310.926
310.806
310.717
310.783
310.888
311.02
311.157
311.31
311.481
311.502
311.178
310.889
310.608
310.412
310.352
310.571
310.64
310.831
311.074
311.316
311.645
311.785
311.532
311.297
311.052
310.844
310.764
310.89
310.973
311.178
311.405
311.627
311.863
311.798
311.563
311.347
311.11
310.889
310.796
310.727
310.796
311
311.253
311.517
311.785
311.926
311.397
311.117
310.865
310.676
310.608
310.445
310.498
310.653
310.862
311.09
311.711
311.918
310.941
310.703
310.508
310.366
310.313
310.055
310.103
310.24
310.432
310.661
311.676
311.355
310.45
310.191
309.994
309.872
309.834
309.942
309.943
309.995
310.095
310.335
311.145
311.054
310.843
310.677
310.508
310.355
310.274
310.627
310.752
310.918
311.095
311.281
311.483
311.796
311.52
311.284
311.054
310.833
310.654
310.728
310.877
311.051
311.225
311.401
311.584
311.706
311.476
311.279
311.082
310.882
310.704
310.729
310.853
311.001
311.153
311.321
311.509
311.49
311.163
310.883
310.609
310.402
310.333
310.53
310.595
310.776
311.016
311.266
311.635
311.803
311.492
311.228
310.973
310.772
310.7
310.805
310.882
311.083
311.326
311.582
311.877
311.868
311.589
311.362
311.145
310.952
310.867
310.952
311.037
311.227
311.427
311.622
311.83
311.806
311.586
311.398
311.191
310.983
310.884
310.831
310.924
311.154
311.406
311.64
311.857
312.084
311.688
311.346
311.039
310.804
310.719
310.607
310.67
310.881
311.238
311.724
312.322
312.103
311.258
310.94
310.698
310.541
310.488
310.54
310.603
310.802
311.121
311.524
312.446
312.236
310.924
310.647
310.437
310.295
310.245
309.909
309.954
310.091
310.296
310.569
312.034
311.651
310.336
310.048
309.871
309.773
309.743
309.877
309.88
309.93
310.018
310.242
311.323
311.26
310.968
310.744
310.522
310.328
310.223
310.559
310.741
310.985
311.244
311.508
311.781
312.153
311.794
311.467
311.142
310.835
310.595
310.6
310.873
311.222
311.591
311.968
312.355
311.962
311.663
311.394
311.126
310.864
310.646
310.63
310.869
311.154
311.444
311.737
312.041
311.748
311.511
311.303
311.092
310.874
310.676
310.673
310.807
310.963
311.12
311.292
311.49
311.438
311.1
310.825
310.561
310.358
310.289
310.462
310.526
310.696
310.927
311.182
311.582
311.783
311.421
311.137
310.882
310.694
310.63
310.738
310.807
311.003
311.257
311.536
311.882
311.905
311.592
311.337
311.098
310.9
310.823
310.911
310.991
311.179
311.388
311.603
311.839
311.766
311.54
311.358
311.176
311.003
310.92
310.986
311.068
311.234
311.399
311.555
311.72
311.74
311.555
311.401
311.223
311.034
310.938
310.889
310.983
311.198
311.424
311.631
311.822
312.034
311.745
311.428
311.125
310.884
310.791
310.674
310.747
310.995
311.461
311.953
312.269
312.537
312.322
312.069
311.639
311.23
311.078
310.788
310.888
311.221
311.732
312.117
312.62
313.035
312.656
312.435
312.15
311.808
311.636
311.11
311.224
311.53
311.918
312.219
312.916
312.743
311.424
311.035
310.726
310.506
310.425
309.816
309.854
309.988
310.245
310.638
312.5
312.146
310.299
309.967
309.806
309.724
309.7
309.841
309.85
309.908
310.003
310.25
311.802
311.755
311.34
310.99
310.648
310.361
310.206
310.563
310.871
311.274
311.684
312.067
312.418
312.841
312.384
311.922
311.436
310.965
310.603
310.584
310.96
311.461
311.994
312.519
313.037
313.049
312.477
311.931
311.392
310.899
310.535
310.557
310.843
311.208
311.599
312.005
312.434
312.441
311.985
311.572
311.176
310.808
310.52
310.584
310.835
311.131
311.433
311.741
312.066
311.749
311.509
311.296
311.077
310.849
310.638
310.616
310.758
310.919
311.078
311.253
311.458
311.377
311.02
310.752
310.498
310.304
310.239
310.395
310.457
310.617
310.836
311.085
311.522
311.744
311.335
311.053
310.806
310.63
310.571
310.694
310.758
310.945
311.204
311.501
311.893
311.969
311.617
311.337
311.082
310.879
310.805
310.91
310.995
311.196
311.425
311.663
311.927
311.765
311.603
311.448
311.27
311.088
310.996
310.973
311.053
311.218
311.38
311.526
311.664
311.596
311.443
311.32
311.185
311.043
310.967
311.007
311.079
311.215
311.339
311.45
311.561
311.654
311.511
311.387
311.234
311.061
310.972
310.909
310.989
311.183
311.386
311.569
311.732
311.894
311.672
311.394
311.117
310.896
310.816
310.691
310.761
311.007
311.474
311.901
312.082
312.29
312.271
312.109
311.798
311.458
311.328
312.079
312.16
312.356
312.508
312.549
312.523
312.861
312.694
312.552
312.332
312.093
311.988
312.44
312.527
312.735
312.913
313.049
313.247
313.465
313.072
312.857
312.627
312.401
312.295
311.915
312.053
312.317
312.557
312.779
313.419
313.305
312.243
311.888
311.487
311.178
311.048
309.896
309.941
310.134
310.519
311.079
313.008
312.541
310.319
309.974
309.828
309.754
309.734
309.914
309.937
310.031
310.159
310.376
312.399
312.541
312.117
311.617
311.053
310.557
310.277
310.713
311.245
311.881
312.443
312.848
313.133
313.567
313.147
312.641
311.998
311.298
310.729
310.67
311.209
311.919
312.619
313.236
313.788
313.813
313.098
312.432
311.727
311.057
310.576
310.489
310.908
311.522
312.201
312.872
313.676
312.953
312.372
311.827
311.297
310.82
310.474
310.422
310.746
311.198
311.704
312.232
312.802
312.387
311.936
311.523
311.127
310.759
310.471
310.537
310.794
311.095
311.402
311.716
312.049
311.733
311.49
311.272
311.049
310.814
310.595
310.561
310.709
310.873
311.032
311.205
311.411
311.319
310.937
310.676
310.432
310.249
310.187
310.336
310.397
310.548
310.756
310.998
311.466
311.714
311.271
310.992
310.754
310.588
310.532
310.682
310.744
310.927
311.184
311.487
311.931
312.069
311.68
311.378
311.109
310.899
310.824
310.958
311.05
311.266
311.513
311.768
312.053
311.872
311.722
311.565
311.373
311.172
311.072
311.162
311.264
311.465
311.659
311.823
311.964
311.702
311.569
311.442
311.29
311.127
311.042
310.979
311.049
311.183
311.307
311.414
311.51
311.394
311.29
311.209
311.115
311.008
310.946
310.975
311.037
311.144
311.235
311.312
311.381
311.532
311.429
311.329
311.192
311.038
310.958
310.925
311.001
311.187
311.37
311.513
311.637
311.766
311.572
311.321
311.076
310.884
310.816
310.685
310.747
310.955
311.368
311.778
311.906
312.07
312.181
312.092
311.834
311.51
311.387
312.131
312.207
312.375
312.462
312.425
312.256
312.482
312.636
312.706
312.68
312.55
312.474
312.446
312.523
312.681
312.768
312.781
312.788
313.108
313.063
313.052
312.997
312.865
312.781
312.807
312.896
313.09
313.254
313.416
313.653
313.976
313.528
313.276
313.043
312.82
312.714
312.531
312.629
312.825
313.041
313.276
313.954
313.871
312.918
312.669
312.406
312.121
311.984
310.436
310.538
310.868
311.422
312.008
313.588
313.004
310.631
310.231
310.064
309.971
309.944
310.217
310.273
310.456
310.663
310.809
312.863
313.101
312.932
312.522
311.769
310.981
310.511
311.082
311.885
312.73
313.241
313.532
313.774
314.283
313.848
313.422
312.769
311.849
311.037
310.9
311.625
312.549
313.342
313.927
314.525
314.507
313.667
312.991
312.191
311.356
310.751
310.616
311.111
311.829
312.574
313.252
314.346
314.109
312.786
312.153
311.497
310.898
310.496
310.394
310.758
311.307
311.937
312.576
313.48
313.256
312.264
311.678
311.116
310.636
310.322
310.354
310.654
311.076
311.552
312.051
312.605
312.294
311.854
311.45
311.062
310.701
310.418
310.487
310.747
311.049
311.357
311.674
312.013
311.699
311.457
311.239
311.014
310.775
310.549
310.509
310.661
310.83
310.987
311.16
311.37
311.269
310.859
310.603
310.367
310.195
310.136
310.287
310.349
310.494
310.693
310.928
311.426
311.713
311.235
310.962
310.73
310.57
310.516
310.702
310.763
310.946
311.203
311.505
311.988
312.179
311.767
311.451
311.171
310.953
310.876
311.036
311.136
311.366
311.621
311.879
312.159
311.964
311.839
311.692
311.498
311.284
311.172
311.273
311.395
311.634
311.867
312.065
312.233
313.768
313.209
312.644
312.096
311.674
311.519
311.397
311.541
311.914
312.382
312.864
313.338
312.912
312.499
312.113
311.732
311.414
311.283
311.208
311.326
311.597
311.907
312.212
312.516
312.28
312.009
311.76
311.5
311.261
311.154
311.1
311.204
311.424
311.658
311.875
312.084
312.01
311.738
311.512
311.286
311.082
311
310.892
310.946
311.121
311.363
311.674
312.298
311.644
311.614
311.383
311.142
310.952
310.883
310.86
310.956
311.304
311.754
311.899
311.753
311.87
312.075
312.154
312.116
311.942
311.819
312.287
312.34
312.393
312.317
312.171
312.009
312.202
312.335
312.491
312.615
312.619
312.576
312.908
312.925
312.881
312.743
312.593
312.453
312.757
312.873
312.958
312.977
312.89
312.824
313.194
313.246
313.309
313.278
313.2
313.116
313.462
313.401
313.38
313.334
313.22
313.142
313.189
313.283
313.476
313.65
313.844
314.113
314.559
314.032
313.724
313.462
313.228
313.117
312.992
313.078
313.277
313.515
313.793
314.53
314.447
313.476
313.225
312.994
312.785
312.682
311.499
311.643
312.042
312.494
312.876
314.188
313.597
311.489
311.013
310.777
310.646
310.604
311.229
311.28
311.453
311.588
311.628
313.479
313.704
313.584
313.456
313.164
312.534
311.949
312.646
313.292
313.722
313.987
314.211
314.447
315.029
314.586
314.196
313.786
313.181
312.417
312.052
312.806
313.598
314.17
314.674
315.296
315.242
314.397
313.84
313.163
312.365
311.714
311.417
311.947
312.658
313.347
313.944
315.072
314.799
313.408
312.816
312.181
311.578
311.16
310.958
311.296
311.782
312.311
312.835
314.415
313.778
312.285
311.732
311.185
310.702
310.383
310.293
310.534
310.9
311.323
311.776
313.357
312.986
311.915
311.401
310.918
310.511
310.245
310.286
310.561
310.95
311.392
311.856
312.417
312.179
311.752
311.361
310.986
310.636
310.362
310.436
310.695
310.995
311.301
311.617
311.959
311.663
311.42
311.2
310.974
310.733
310.503
310.459
310.616
310.788
310.944
311.114
311.324
311.232
310.79
310.537
310.306
310.145
310.089
310.25
310.313
310.457
310.651
310.879
311.403
311.733
311.229
310.96
310.734
310.577
310.524
310.747
310.809
310.993
311.251
311.553
312.057
312.283
311.862
311.541
311.255
311.029
310.948
311.126
311.236
311.475
311.731
311.979
312.237
312.053
311.952
311.815
311.622
311.397
311.275
311.386
311.527
311.811
312.098
312.355
312.591
314.103
313.541
312.922
312.301
311.826
311.658
311.645
311.756
312.156
312.798
313.53
314.25
314.035
313.212
312.537
311.971
311.612
311.513
311.412
311.513
311.853
312.358
312.944
313.649
313.22
312.654
312.177
311.744
311.428
311.324
311.263
311.367
311.655
312.02
312.401
312.821
312.559
312.207
311.887
311.565
311.301
311.207
311.16
311.25
311.519
311.842
312.156
312.506
312.349
312.076
311.817
311.541
311.283
311.158
311.033
311.115
311.354
311.697
312.138
312.688
313.062
312.171
311.549
311.115
310.908
310.846
310.787
310.852
311.065
311.467
311.886
312.645
313.11
312.597
312.321
312.042
311.742
311.618
312.313
312.397
312.605
312.875
313.184
313.519
313.838
313.688
313.37
313.05
312.807
312.711
313.117
313.223
313.508
313.848
314.088
314.129
314.415
314.463
314.298
313.973
313.653
313.517
313.239
313.25
313.192
313.055
312.914
312.787
313.208
313.312
313.445
313.57
313.621
313.604
313.554
313.607
313.667
313.641
313.577
313.514
313.876
313.806
313.771
313.718
313.605
313.525
313.58
313.686
313.89
314.086
314.308
314.604
315.144
314.597
314.215
313.906
313.646
313.527
313.425
313.517
313.737
314.013
314.346
315.12
315.033
314.027
313.744
313.497
313.288
313.191
312.522
312.653
312.939
313.244
313.548
314.784
314.252
312.532
312.106
311.812
311.631
311.573
312.568
312.525
312.557
312.576
312.531
314.144
314.333
314.207
314.106
314.004
313.919
313.918
314.087
314.23
314.445
314.666
314.894
315.14
315.791
315.353
314.961
314.584
314.239
314.011
313.872
314.151
314.554
315.013
315.508
316.094
316.099
315.324
314.825
314.368
313.962
313.656
313.443
313.731
314.116
314.527
314.982
315.988
315.769
314.586
314.201
313.86
313.539
313.292
313.305
313.437
313.643
313.882
314.171
315.449
315.124
313.9
313.711
313.572
313.469
313.424
311.028
311.263
311.613
312.006
312.408
313.998
313.76
312.437
312.202
311.998
311.835
311.754
310.326
310.486
310.744
311.05
311.387
312.9
312.645
311.506
311.09
310.707
310.385
310.174
310.221
310.466
310.816
311.215
311.635
312.224
312.04
311.632
311.259
310.899
310.564
310.304
310.384
310.64
310.936
311.237
311.549
311.889
311.623
311.379
311.159
310.932
310.689
310.456
310.411
310.573
310.749
310.906
311.076
311.289
311.207
310.732
310.478
310.252
310.1
310.046
310.224
310.29
310.438
310.629
310.853
311.395
311.767
311.246
310.983
310.76
310.605
310.551
310.81
310.873
311.059
311.315
311.614
312.131
312.365
311.952
311.633
311.347
311.115
311.03
311.217
311.335
311.579
311.827
312.054
312.277
312.118
312.042
311.92
311.733
311.503
311.372
311.491
311.653
311.981
312.321
312.629
312.915
314.327
313.726
313.068
312.41
311.915
311.742
311.691
311.802
312.218
312.879
313.599
314.286
314.071
313.311
312.664
312.138
311.947
312.103
314.625
318.366
329.086
363.111
441.221
433.369
349.497
321.361
314.942
313.115
312.291
312.785
315.382
334.442
418.381
400.79
325.495
313.76
312.728
312.636
313.242
313.237
313.767
322.103
389.477
392.8
323.065
314.425
313.943
313.988
315.464
315.364
316.448
330.444
410.775
409.501
330.062
316.484
315.394
315.395
315.435
315.408
315.405
315.461
316.403
328.606
405.499
390.824
322.409
314.394
313.958
313.962
313.207
313.304
313.97
322.992
394.324
407.108
326.678
314.065
312.871
312.618
312.511
313.193
316.068
336.716
427.25
443.028
355.879
325.733
317.397
314.987
319.26
325.073
339.151
374.845
453.531
455.925
377.723
339.151
324.167
318.091
314.708
317.457
326.664
360.004
447.146
433.044
341.023
317.009
313.384
312.569
312.629
312.944
314.566
330.072
415.091
402.352
325.506
314.253
313.313
313.157
313.838
313.863
314.507
324.004
396.202
403.45
327.728
316.358
315.493
315.414
315.367
313.831
313.089
312.474
312.038
312.076
312.683
311.616
311.685
311.977
312.514
313.183
313.904
313.746
312.976
312.344
311.846
311.567
311.492
311.385
311.449
311.699
312.143
312.704
313.434
313.08
312.455
311.985
311.596
311.363
311.298
311.256
311.312
311.512
311.829
312.197
312.762
312.576
312.095
311.787
311.509
311.31
311.238
311.266
311.376
311.643
311.971
312.3
312.632
312.481
312.058
311.741
311.423
311.192
311.123
311.038
311.091
311.283
311.583
311.968
312.793
312.864
312.164
311.697
311.346
311.114
311.043
310.868
310.917
311.093
311.42
311.955
313.241
313.728
312.741
312.272
311.759
311.405
311.301
311.529
311.66
312.039
312.496
312.896
313.419
313.77
313.533
313.171
312.787
312.504
312.4
312.882
312.986
313.297
313.707
314.031
314.095
314.467
314.465
314.21
313.793
313.434
313.302
313.754
313.897
314.296
314.721
314.955
314.938
315.55
315.527
315.276
314.829
314.382
314.202
313.968
314.118
314.467
314.777
314.882
314.747
315.176
315.32
315.292
315.007
314.627
314.442
314.052
314.075
314.051
313.961
313.858
313.716
314
314.037
314.08
314.086
314.011
313.945
313.951
314.03
314.154
314.227
314.282
314.353
315.128
314.802
314.556
314.336
314.113
313.986
313.968
314.091
314.391
314.745
315.168
315.734
315.724
314.914
314.539
314.224
313.971
313.862
313.686
313.776
313.993
314.262
314.575
315.629
315.39
314.149
313.844
313.556
313.301
313.191
312.523
312.601
312.821
313.086
313.394
314.895
314.806
313.771
313.65
313.538
313.449
313.456
314.518
314.528
314.624
314.735
314.843
314.96
315.822
315.536
315.3
315.07
314.846
314.687
314.681
314.937
315.304
315.694
316.095
316.51
316.83
316.27
315.774
315.301
314.874
314.595
314.509
314.764
315.184
315.668
316.172
316.88
316.813
315.896
315.431
314.996
314.632
314.421
314.36
314.502
314.777
315.12
315.505
316.61
316.288
315.115
314.832
314.598
314.42
314.342
314.438
314.438
314.511
314.63
314.801
315.924
315.218
314.644
314.582
314.553
314.554
314.601
313.754
313.714
313.725
313.769
313.858
314.773
313.197
313.082
313.076
313.074
313.075
313.089
312.301
312.295
312.337
312.404
312.495
313.216
312.602
311.473
311.286
311.132
311.016
310.973
310.206
310.335
310.547
310.804
311.089
312.224
311.997
311.344
310.989
310.655
310.362
310.157
310.242
310.485
310.802
311.141
311.492
311.882
311.804
311.466
311.163
310.869
310.579
310.329
310.41
310.646
310.891
311.121
311.346
311.582
311.262
311.035
310.868
310.71
310.532
310.365
310.007
310.059
310.206
310.428
310.685
311.193
311.399
310.844
310.623
310.431
310.277
310.206
310.594
310.647
310.8
311.018
311.274
311.802
312.193
311.673
311.38
311.129
310.942
310.876
311.111
311.197
311.431
311.709
312.016
312.407
312.249
312.069
311.881
311.657
311.419
311.295
311.454
311.589
311.807
311.967
312.049
312.07
313.097
312.834
312.52
312.153
311.788
311.598
311.766
311.949
312.444
313.096
313.763
314.419
314.095
313.985
313.916
314.554
325.277
402.792
404.135
414.727
425.376
426.598
424.642
350.279
346.768
338.729
329.887
325.422
313.968
314.14
315.965
320.298
323.686
315.825
314.203
312.728
312.714
313.183
313.213
312.64
312.27
312.605
313.205
311.941
311.941
312.207
312.722
313.33
313.31
312.734
312.24
311.94
311.866
312.407
312.286
312.257
312.606
313.125
313.126
312.756
312.768
313.43
313.851
318.597
318.161
316.634
315.415
314.979
335.699
339.043
340.615
339.652
337.611
408.4
414.802
425.397
427.515
423.289
419.286
333.018
315.205
313.877
313.932
314.078
315.633
315.355
315.496
318.597
339.795
425.617
414.154
331.44
316.472
315.327
315.461
315.631
315.607
316.861
316.901
317.103
319.541
339.682
422.964
427.32
341.312
319.829
317.173
316.937
316.902
316.787
316.887
317.11
319.114
337.291
420.576
412.42
332.939
318.451
317.118
316.962
316.865
317.255
317.329
317.45
318.615
332.088
409.796
402.658
328.009
316.701
315.824
315.732
315.662
313.967
314.008
314.099
314.883
325.281
398.757
403.093
413.448
428.462
443.154
451.967
372.372
356.406
339.519
330.162
326.275
314.515
314.718
316.686
323.46
333.085
320.431
315.913
313.287
313.059
313.473
313.275
312.717
312.52
313.654
315.832
312.222
311.983
312.087
312.545
313.162
313.233
312.572
312.039
311.726
311.637
311.501
311.578
311.855
312.335
312.953
313.713
313.294
312.558
312.028
311.625
311.404
311.343
311.25
311.299
311.484
311.818
312.247
312.888
312.619
312.072
311.721
311.431
311.259
311.21
311.196
311.244
311.405
311.651
311.93
312.456
312.917
311.902
311.545
311.28
311.123
311.078
311.103
311.152
311.33
311.63
312.043
313.016
313.023
312.215
311.726
311.381
311.168
311.105
310.925
310.963
311.101
311.339
311.69
313.475
313.074
311.667
311.292
311.046
310.905
310.862
311.121
311.185
311.41
311.823
312.323
313.629
314.382
313.211
312.854
312.514
312.229
312.116
312.325
312.445
312.715
313.074
313.432
314.289
314.937
313.989
313.636
313.263
312.985
312.882
313.355
313.46
313.766
314.164
314.528
315.695
316.554
315.137
314.715
314.273
313.924
313.796
314.281
314.415
314.812
315.321
315.842
317.407
318.033
316.653
316.005
315.405
314.944
314.775
314.709
314.903
315.403
315.909
316.237
316.308
317.195
317.027
316.606
316.031
315.473
315.24
315.004
315.206
315.618
315.894
315.884
315.749
314.319
314.459
314.532
314.58
314.56
314.509
314.415
314.485
314.588
314.614
314.593
314.553
314.885
314.784
314.713
314.619
314.474
314.376
314.454
314.589
314.841
315.09
315.357
315.679
316.314
315.737
315.284
314.896
314.559
314.409
314.336
314.446
314.725
315.075
315.486
316.342
316.242
315.161
314.811
314.51
314.269
314.166
313.767
313.868
314.114
314.403
314.72
315.99
315.521
314.073
313.783
313.551
313.341
313.251
314.22
314.229
314.34
314.428
314.402
315.417
315.567
315.405
315.293
315.179
315.078
315.055
315.303
315.483
315.721
315.959
316.198
316.449
317.136
316.725
316.331
315.936
315.556
315.276
315.229
315.536
315.982
316.459
316.939
317.448
317.509
316.854
316.364
315.877
315.435
315.15
315.087
315.314
315.692
316.125
316.572
317.434
317.208
316.187
315.821
315.483
315.2
315.04
315.044
315.113
315.278
315.49
315.741
316.825
316.46
315.464
315.314
315.209
315.142
315.137
315.071
315.022
315.009
315.013
315.025
315.14
311.137
312.054
312.152
312.19
312.201
312.198
312.846
312.847
312.845
312.829
312.78
312.299
309.572
310.356
310.42
310.43
310.412
310.375
311.252
311.292
311.317
311.32
311.287
310.805
311.844
311.737
311.713
311.682
311.649
311.623
311.233
311.244
311.291
311.357
311.441
312.078
311.856
310.958
310.798
310.663
310.56
310.513
310.13
310.27
310.476
310.712
310.967
311.695
311.726
311.307
310.99
310.682
310.396
310.18
310.277
310.52
310.803
311.09
311.384
311.703
311.535
311.288
311.063
310.835
310.592
310.357
310.331
310.505
310.691
310.854
311.023
311.24
311.184
310.646
310.383
310.163
310.021
309.964
310.201
310.271
310.432
310.624
310.841
311.403
311.832
311.305
311.057
310.845
310.692
310.634
310.944
311.005
311.187
311.429
311.709
312.232
312.408
312.033
311.748
311.488
311.262
311.171
311.361
311.48
311.7
311.891
312.038
312.164
311.9
311.935
311.913
311.809
311.63
311.504
311.697
311.916
312.312
312.681
312.965
313.164
314.42
313.756
313.104
312.474
311.979
311.775
311.809
312.029
312.527
313.135
313.76
314.395
314.043
313.858
314.158
318.395
344.115
431.542
432.327
427.797
414.549
399.687
394.775
328.062
330.588
335.643
341.575
344.608
317.2
316.075
315.831
315.527
315.075
312.62
312.677
312.617
312.751
313.112
313.042
312.576
312.234
312.074
312.004
311.829
311.948
312.269
312.742
313.289
313.242
312.726
312.296
311.978
311.841
311.876
311.992
312.195
312.559
313.366
315.142
313.332
312.501
312.294
312.124
313.516
314.077
315.215
318.593
323.397
353.618
343.813
332.518
325.992
323.896
390.405
394.604
411.308
425.69
435.041
440.747
360.628
328.644
318.249
315.14
314.156
316.114
318.256
322.968
335.518
368.16
444.749
435.382
350.834
323.276
316.684
315.479
315.597
316.99
317.636
319.912
328.635
359.013
441.222
432.335
347.793
322.682
317.765
316.992
316.87
316.812
316.867
317.038
319.319
338.889
421.875
422.628
341.182
320.828
318.171
317.852
317.731
317.799
317.94
318.284
321.171
342.573
424.585
433.117
346.361
321.869
318.472
318.111
318.023
317.903
318.052
318.322
320.536
339.873
423.798
413.913
334.422
319.707
318.334
318.166
318.057
318.415
318.501
318.635
319.945
334.453
413.431
422.1
338.64
320.645
318.789
318.64
318.562
317.497
317.537
317.646
319.179
335.28
417.043
408.982
330.475
317.228
316.128
316.06
316.036
314.335
313.439
312.75
312.213
311.965
311.969
314.322
318.013
329.799
367.162
445.175
440.263
355.541
322.77
315.23
313.213
312.605
313.385
317.094
341.6
431.132
419.452
332.785
315.222
313.282
312.919
313.548
313.757
315.021
328.821
410.382
406.389
327.875
315.439
314.44
314.355
314.622
314.733
316.15
331.795
416.298
423.744
334.474
315.97
314.053
313.791
313.124
313.584
316.46
339.54
431.81
436.632
347.531
318.518
313.672
312.76
313.055
314.994
322.74
354.596
435.04
434.119
357.799
326.19
316.431
313.495
311.98
312.028
312.316
312.894
313.641
314.558
314.64
313.943
313.235
312.576
312.096
311.913
311.856
312.028
312.491
313.138
313.845
314.53
314.017
313.226
312.567
312.039
311.705
311.597
311.372
311.438
311.67
312.077
312.62
313.323
312.726
312.206
311.836
311.535
311.341
311.276
311.3
311.387
311.612
311.936
312.327
312.784
312.5
312.039
311.725
311.47
311.303
311.246
311.282
311.362
311.564
311.847
312.184
312.598
313.087
312.22
311.73
311.402
311.208
311.151
311.021
311.068
311.24
311.573
312.205
313.883
313.366
311.562
311.268
311.071
310.953
310.917
310.925
310.963
311.087
311.298
311.604
313.485
314.256
311.748
311.332
311.083
310.946
310.902
310.986
311.038
311.212
311.539
312.081
314.081
314.992
313.132
312.622
312.149
311.841
311.749
312.793
312.891
313.143
313.506
313.958
315.887
315.134
313.833
313.479
313.159
312.929
312.847
313.349
313.44
313.697
314.052
314.448
315.946
316.717
315.106
314.636
314.222
313.923
313.819
314.307
314.423
314.768
315.254
315.81
317.293
317.64
316.516
315.891
315.327
314.93
314.798
315.339
315.476
315.909
316.515
317.12
317.907
318.257
317.442
316.69
316.001
315.487
315.312
315.901
316.081
316.628
317.354
317.972
318.461
317.969
317.817
317.319
316.677
316.076
315.827
315.612
315.839
316.273
316.524
316.503
316.418
315.031
315.203
315.252
315.237
315.15
315.066
314.901
314.99
315.139
315.212
315.217
315.185
315.483
315.372
315.281
315.155
314.977
314.864
314.936
315.089
315.37
315.643
315.922
316.244
316.864
316.31
315.847
315.429
315.061
314.894
314.826
314.945
315.252
315.631
316.064
316.934
316.82
315.735
315.361
315.035
314.779
314.673
314.316
314.416
314.667
314.968
315.302
316.574
316.111
314.664
314.358
314.124
313.914
313.827
314.806
314.82
314.932
315.004
314.936
316.006
316.16
315.992
315.883
315.768
315.658
315.618
315.867
316.065
316.312
316.552
316.787
317.029
317.671
317.299
316.925
316.54
316.156
315.858
315.822
316.144
316.589
317.047
317.492
317.945
317.984
317.401
316.951
316.486
316.05
315.754
315.699
315.929
316.295
316.701
317.106
317.878
317.612
316.699
316.374
316.069
315.806
315.654
315.641
315.702
315.846
316.029
316.246
317.207
316.858
315.968
315.838
315.749
315.692
315.69
315.28
315.238
315.217
315.195
315.151
314.744
310.289
311.25
311.365
311.416
311.439
311.444
308.983
309.009
309.028
309.033
309.008
308.553
308.793
309.449
309.508
309.52
309.509
309.485
308.215
308.269
308.317
308.341
308.318
308.226
308.546
308.866
308.942
308.94
308.9
308.846
309.736
309.8
309.847
309.859
309.806
309.339
310.507
310.649
310.654
310.625
310.574
310.514
310.827
310.863
310.91
310.956
310.999
311.307
311.472
310.841
310.754
310.682
310.628
310.603
310.196
310.269
310.388
310.529
310.688
311.378
311.533
311.061
310.796
310.538
310.3
310.12
310.219
310.451
310.724
310.999
311.28
311.586
311.484
311.243
311.02
310.792
310.546
310.31
310.288
310.468
310.658
310.827
310.998
311.219
311.177
310.612
310.341
310.123
309.986
309.933
310.19
310.267
310.437
310.63
310.844
311.405
311.845
311.323
311.087
310.883
310.734
310.679
310.994
311.055
311.23
311.458
311.722
312.244
312.378
312.021
311.755
311.516
311.303
311.218
311.394
311.504
311.695
311.846
311.957
312.055
311.658
311.752
311.798
311.763
311.638
311.535
311.777
312.016
312.419
312.765
313.003
313.142
312.979
312.915
312.747
312.452
312.072
311.836
311.862
312.093
312.588
313.164
313.739
314.307
314.088
313.607
313.103
312.577
312.11
311.902
311.894
312.076
312.44
312.899
313.611
315.156
316.373
313.782
312.847
312.4
312.053
311.897
311.859
311.944
312.167
312.748
314.39
318.742
313.889
312.142
311.919
311.85
312.186
312.192
312.744
316.997
325.479
340.787
327.214
317.79
315.559
316.199
344.068
340.693
348.117
361.369
376.846
453.508
447.237
439.867
429.339
432.514
451.307
446.671
449.279
451.665
454.582
380.289
371.943
364.897
362.682
369.252
326.03
323.577
326.115
334.668
345.554
330.595
321.091
315.162
313.524
313.779
312.01
312.037
312.667
315.815
322.778
315.912
313.082
312.147
311.924
311.885
311.984
312.063
312.324
312.936
314.641
320.794
325.558
339.787
347.454
359.113
385.95
455.338
455.732
387.211
364.468
355.876
349.565
332.316
326.277
341.503
355.491
377.225
412.049
467.612
455.873
388.575
353.407
335.347
325.973
318.411
320.717
331.073
341.614
360.905
396.771
461.153
450.215
376.302
342.216
327.858
321.799
318.052
319.127
323.427
329.954
344.925
379.543
452.333
442.982
362.05
330.965
321.561
318.871
317.903
317.753
317.994
318.938
324.207
350.054
433.689
433.118
349.671
324.497
319.451
318.497
318.139
318.146
318.357
318.739
321.239
340.712
421.718
423.459
341.975
321.594
318.927
318.552
318.319
318.762
318.856
319.187
322.251
345.388
431.577
421.9
339.138
321.061
319.088
318.837
318.676
318.93
319.027
319.187
320.44
334.359
412.672
414.771
335.634
320.839
319.49
319.355
319.256
319.386
319.478
319.644
321.632
340.316
424.175
431.421
345.209
322.637
319.814
319.601
319.565
318.722
318.748
318.935
321.545
343.241
429.352
421.935
338.038
319.715
317.792
317.68
317.672
316.261
316.282
316.351
317.673
332.509
413.338
413.328
332.933
317.887
316.552
316.537
316.621
314.862
313.893
313.111
312.472
312.104
312.003
312.587
314.19
319.9
341.677
413.462
414.582
341.78
319.007
313.787
312.542
312.669
313.361
317.456
341.774
421.945
425.165
338.92
316.354
313.569
313.197
313.949
314.157
316.066
334.635
421.042
416.427
332.504
316.411
314.947
314.864
315.052
315.132
317.099
337.151
426.894
430.184
344.33
319.527
314.834
314.123
313.301
314.049
318.969
344.978
428.66
418.096
340.077
317.463
313.337
312.683
312.422
313.24
316.943
334.394
403.026
398.006
331.665
316.485
313.177
312.353
312.147
312.237
312.587
313.22
314.054
315.112
315.624
314.709
313.887
313.14
312.58
312.368
312.175
312.361
312.872
313.579
314.359
315.241
314.794
314.029
313.295
312.636
312.166
311.994
311.64
311.719
312.024
312.558
313.257
314.176
313.413
312.423
311.988
311.662
311.459
311.389
311.395
311.505
311.781
312.181
312.677
313.288
314.579
313.209
312.398
311.845
311.507
311.395
311.319
311.413
311.7
312.166
312.819
313.81
313.615