/*--------------------------------*- C++ -*----------------------------------*\
| =========                 |                                                 |
| \\      /  F ield         | OpenFOAM: The Open Source CFD Toolbox           |
|  \\    /   O peration     | Version:  2212                                  |
|   \\  /    A nd           | Website:  www.openfoam.com                      |
|    \\/     M anipulation  |                                                 |
\*---------------------------------------------------------------------------*/
FoamFile
{
    version     2.0;
    format      ascii;
    arch        "LSB;label=32;scalar=64";
    class       volScalarField;
    location    "100";
    object      p;
}
// * * * * * * * * * * * * * * * * * * * * * * * * * * * * * * * * * * * * * //

dimensions      [0 2 -2 0 0 0 0];

internalField   nonuniform List<scalar> 
248319
(
0
0.0192777
0.0402669
0.0499087
0.0579484
0.0646512
0.0702449
0.109353
0.103288
0.0960142
0.0872919
0.0768328
0.0510438
0.0498338
0.0761377
0.0872713
0.0965677
0.104326
0.110797
0.0812569
0.0763868
0.0705981
0.0636698
0.0553437
0.033091
0.0137184
0.028007
0.0342201
0.0395204
0.0440853
0.0480593
0.0626238
0.0577859
0.0519881
0.0450491
0.0367402
0.0196794
-0.0539499
-0.0471908
-0.0434456
-0.0403215
-0.0377007
-0.0355244
-0.0212327
-0.0247005
-0.0288591
-0.0338369
-0.0398022
-0.0507627
-0.0555458
-0.040219
-0.0334767
-0.0278616
-0.0231812
-0.0192646
0.0634662
0.0574267
0.0501782
0.0414873
0.031066
0.000543112
0.0309067
0.0593119
0.0692846
0.077599
0.0845268
0.0903059
0.100135
0.0944883
0.0877133
0.0795864
0.0698429
0.0359011
0.0499474
0.0749707
0.0847337
0.0928709
0.0996548
0.105309
0.109526
0.103003
0.0951818
0.0858055
0.0745662
0.0473117
0.0190737
0.0397453
0.046372
0.0518983
0.0565811
0.0606299
-0.0356332
-0.0383634
-0.0410933
-0.0438214
-0.0465509
-0.0535724
-0.0515052
-0.043857
-0.0414687
-0.0392282
-0.0370899
-0.0350252
-0.140389
-0.140798
-0.141189
-0.141558
-0.141896
-0.14527
-0.144826
-0.141948
-0.140968
-0.140154
-0.139472
-0.138899
-0.132515
-0.133793
-0.135339
-0.137177
-0.139386
-0.144443
-0.145905
-0.139377
-0.136704
-0.134476
-0.132606
-0.131066
-0.133992
-0.13563
-0.137608
-0.139967
-0.142811
-0.150194
-0.0695835
-0.0525821
-0.0457619
-0.0400763
-0.0353431
-0.0313808
0.0473143
0.0406939
0.0327532
0.0232224
0.011796
-0.0194651
-0.00915961
0.0315419
0.0452778
0.0567308
0.0662813
0.0742436
0.0901744
0.0833692
0.0752084
0.0654172
0.0536746
0.0104137
0.0096586
0.0523179
0.0641555
0.0740223
0.0822455
0.0891017
0.0978813
0.0923002
0.0856032
0.0775663
0.0679242
0.0344803
0.0489418
0.0735198
0.0833183
0.0914824
0.0982856
0.103953
0.109474
0.10278
0.0947532
0.0851305
0.0735941
0.0456346
0.0147834
0.0354091
0.0421943
0.0479073
0.0527889
0.0570352
-0.0392388
-0.0419547
-0.0446724
-0.0473904
-0.0501107
-0.0586926
-0.147621
-0.143315
-0.142597
-0.141879
-0.141161
-0.140443
-0.139444
-0.140147
-0.140847
-0.141545
-0.142244
-0.146188
-0.243995
-0.242351
-0.242278
-0.242205
-0.242133
-0.242059
-0.242968
-0.242956
-0.242922
-0.242862
-0.242764
-0.243759
-0.243292
-0.242388
-0.242262
-0.242155
-0.242071
-0.242003
-0.238675
-0.238998
-0.239378
-0.239844
-0.240395
-0.242606
-0.242859
-0.239808
-0.239088
-0.238485
-0.237986
-0.23756
-0.238122
-0.23859
-0.239154
-0.239822
-0.240622
-0.244226
-0.245663
-0.241505
-0.240529
-0.239721
-0.239037
-0.238478
-0.136228
-0.138072
-0.140289
-0.142944
-0.146132
-0.154327
-0.0774001
-0.0596853
-0.0525316
-0.0465661
-0.041601
-0.0374547
0.034215
0.0274378
0.019304
0.00954002
-0.00216139
-0.0328474
-0.0252856
0.0126319
0.0266629
0.0383615
0.0481146
0.056242
0.0568246
0.0485569
0.0386338
0.0267301
0.0124496
-0.0247302
-0.00912778
0.030691
0.0447123
0.0563986
0.0661409
0.0742619
0.0739361
0.0657343
0.0558932
0.0440874
0.0299181
-0.00975248
0.00872967
0.0514165
0.063416
0.0734134
0.0817459
0.0886907
0.09758
0.0919205
0.0851313
0.0769827
0.0672063
0.0335582
0.0480734
0.0729867
0.0829152
0.0911883
0.0980835
0.103827
0.109427
0.102621
0.0944584
0.084673
0.0729404
0.044535
0.0132916
0.0339993
0.040972
0.0468587
0.0518988
0.0562857
-0.0407165
-0.0434396
-0.0461621
-0.0488848
-0.0516088
-0.0603938
-0.148678
-0.144123
-0.143448
-0.142772
-0.142098
-0.141423
-0.242701
-0.242776
-0.242852
-0.24293
-0.243006
-0.245094
-0.24448
-0.242458
-0.242386
-0.242314
-0.242242
-0.242169
-0.343409
-0.343406
-0.343404
-0.343403
-0.343399
-0.344177
-0.343947
-0.343384
-0.343407
-0.343428
-0.34345
-0.343471
-0.34421
-0.344157
-0.344092
-0.344015
-0.343919
-0.344006
-0.343676
-0.343583
-0.343637
-0.343688
-0.343728
-0.343762
-0.341949
-0.341996
-0.342048
-0.342117
-0.342198
-0.343024
-0.342975
-0.34172
-0.341591
-0.341478
-0.34139
-0.341323
-0.341467
-0.341549
-0.341659
-0.341793
-0.341944
-0.343468
-0.343951
-0.342135
-0.341948
-0.341783
-0.341652
-0.34154
-0.340757
-0.340952
-0.341167
-0.341438
-0.341757
-0.344006
-0.246057
-0.241091
-0.239714
-0.238569
-0.237606
-0.23682
-0.134521
-0.136838
-0.139626
-0.142966
-0.146967
-0.156225
-0.0818394
-0.0633185
-0.0553527
-0.0487091
-0.0431871
-0.0385649
0.0239705
0.0174919
0.00971504
0.000383729
-0.0108008
-0.0405095
-0.0341788
0.00127506
0.01359
0.0238586
0.0324187
0.039552
0.0405648
0.0333934
0.0247882
0.0144643
0.00207992
-0.0330942
-0.0329078
0.00219459
0.0145661
0.0248777
0.0334727
0.0406338
0.0567281
0.0484245
0.0384601
0.0265073
0.0121648
-0.0248711
-0.0250385
0.0120535
0.0263966
0.0383484
0.0483091
0.0566085
0.0737427
0.0655295
0.0556734
0.043844
0.0296522
-0.0101002
0.00828327
0.0511231
0.0631595
0.0731848
0.0815435
0.0885067
0.0974573
0.0917785
0.084967
0.0767911
0.0669771
0.0331516
0.0476897
0.0727855
0.0827558
0.091062
0.0979849
0.103752
0.109384
0.102533
0.0943153
0.0844632
0.072652
0.0440667
0.0127377
0.0335616
0.0406031
0.0465491
0.0516414
0.0560698
-0.0411983
-0.0439172
-0.0466352
-0.049354
-0.0520741
-0.0610005
-0.149283
-0.14472
-0.144041
-0.143361
-0.142681
-0.142002
-0.243158
-0.243234
-0.243311
-0.243388
-0.243464
-0.245541
-0.344822
-0.343997
-0.343997
-0.343997
-0.343997
-0.343997
-0.343683
-0.343683
-0.343683
-0.343683
-0.343683
-0.344517
-0.444286
-0.44396
-0.44396
-0.44396
-0.44396
-0.44396
-0.443806
-0.443805
-0.443804
-0.443802
-0.4438
-0.444085
-0.443996
-0.443843
-0.443858
-0.443872
-0.443887
-0.4439
-0.444461
-0.444431
-0.444392
-0.444345
-0.444289
-0.444139
-0.443994
-0.444131
-0.444189
-0.444243
-0.444288
-0.444322
-0.443393
-0.443393
-0.443387
-0.443381
-0.443376
-0.443632
-0.443706
-0.443261
-0.443258
-0.443243
-0.44324
-0.443224
-0.443585
-0.443607
-0.443604
-0.443625
-0.443641
-0.444151
-0.444726
-0.444186
-0.444152
-0.444136
-0.444126
-0.444104
-0.444407
-0.444433
-0.444469
-0.444504
-0.444559
-0.44518
-0.445396
-0.444578
-0.444463
-0.44436
-0.444285
-0.444221
-0.338892
-0.339259
-0.33968
-0.340194
-0.340808
-0.343696
-0.245854
-0.239668
-0.237488
-0.235669
-0.234142
-0.232883
-0.124323
-0.127575
-0.131489
-0.136184
-0.14182
-0.154712
-0.0825159
-0.06064
-0.0513652
-0.04363
-0.0371984
-0.0318124
0.0161654
0.0099622
0.00252054
-0.00640789
-0.0171171
-0.0446072
-0.0407145
-0.0115202
-0.00121249
0.0073836
0.0145453
0.0205187
0.0212579
0.0153378
0.00823676
-0.000286049
-0.0105081
-0.0395486
-0.0393211
-0.0103375
-0.000137911
0.00836418
0.015448
0.0213545
0.0213312
0.0154276
0.00835196
-0.000143161
-0.0103408
-0.039353
-0.0329593
0.00218699
0.0145483
0.0248507
0.0334335
0.040586
0.0405383
0.0333865
0.0248067
0.0145062
0.0021461
-0.0330527
-0.0251679
0.0119832
0.0263248
0.0382761
0.0482343
0.0565316
0.0736468
0.0654312
0.0555724
0.04374
0.0295452
-0.0102796
0.0080908
0.0510191
0.0630603
0.0730923
0.0814561
0.088424
0.0974048
0.0917233
0.0849057
0.0767246
0.0669061
0.0330039
0.047559
0.0727249
0.0827052
0.0910201
0.0979505
0.103724
0.109374
0.102506
0.0942701
0.0843943
0.0725561
0.0439238
0.0125822
0.0335122
0.0405937
0.0465738
0.0516919
0.0561376
-0.0413526
-0.044081
-0.0468085
-0.0495359
-0.0522644
-0.0612174
-0.149541
-0.144987
-0.144305
-0.143624
-0.142941
-0.142258
-0.243426
-0.243503
-0.24358
-0.243656
-0.243733
-0.245791
-0.345037
-0.344234
-0.344234
-0.344234
-0.344234
-0.344234
-0.444393
-0.444393
-0.444393
-0.444393
-0.444393
-0.444694
-0.444505
-0.444186
-0.444186
-0.444186
-0.444186
-0.444186
-0.543748
-0.543748
-0.543748
-0.543748
-0.543748
-0.543884
-0.543697
-0.543556
-0.543556
-0.543556
-0.543556
-0.543556
-0.543443
-0.543443
-0.543444
-0.543442
-0.543441
-0.543561
-0.543529
-0.543485
-0.543493
-0.5435
-0.543507
-0.543514
-0.5439
-0.543884
-0.543865
-0.54384
-0.543811
-0.543676
-0.543681
-0.543823
-0.543862
-0.543888
-0.543908
-0.54394
-0.543607
-0.543591
-0.5436
-0.543587
-0.543579
-0.543622
-0.543932
-0.543843
-0.543837
-0.543853
-0.543833
-0.543842
-0.544584
-0.544576
-0.544595
-0.544585
-0.544589
-0.544623
-0.54563
-0.545711
-0.545712
-0.545715
-0.545704
-0.545708
-0.547059
-0.547063
-0.547068
-0.547069
-0.547075
-0.546852
-0.54813
-0.548472
-0.548447
-0.548442
-0.548422
-0.548412
-0.549316
-0.54934
-0.54938
-0.549414
-0.549462
-0.549092
-0.445344
-0.44415
-0.443877
-0.443652
-0.443468
-0.44331
-0.336085
-0.336743
-0.337514
-0.338448
-0.339572
-0.343327
-0.246677
-0.238984
-0.23567
-0.232904
-0.230589
-0.228668
-0.121775
-0.125815
-0.130679
-0.136517
-0.143519
-0.159733
-0.109599
-0.0815248
-0.0712092
-0.0626042
-0.0554325
-0.0494503
-0.0145124
-0.0204343
-0.0275272
-0.0360436
-0.046256
-0.0736505
-0.0681775
-0.0358271
-0.0257764
-0.017399
-0.0104109
-0.00458252
-0.00460116
-0.0104196
-0.0173935
-0.0257607
-0.0358058
-0.0676318
-0.0675446
-0.0358211
-0.0257756
-0.0174052
-0.0104296
-0.00461489
-0.00466048
-0.0104734
-0.017451
-0.0258182
-0.0358618
-0.067611
-0.067701
-0.0359177
-0.0258684
-0.0174957
-0.0105182
-0.00470242
0.0212942
0.0153907
0.00831281
-0.000184484
-0.0103843
-0.0394305
-0.0394928
-0.0104241
-0.000223216
0.00827826
0.0153611
0.0212643
0.0405094
0.0333551
0.0247711
0.0144701
0.00210844
-0.0331196
-0.0252403
0.0119451
0.0262851
0.0382355
0.0481943
0.0564936
0.0736028
0.0653873
0.0555287
0.0436985
0.0295049
-0.0103577
0.00802313
0.0509848
0.0630249
0.0730584
0.0814225
0.0883901
0.097387
0.0917043
0.0848855
0.0767048
0.0668905
0.032967
0.0475305
0.0727126
0.0826925
0.0910083
0.0979389
0.103714
0.109368
0.102498
0.0942587
0.0843791
0.0725384
0.0438954
0.0125511
0.0335055
0.040591
0.0465732
0.0516943
0.0561413
-0.0413803
-0.0441115
-0.0468399
-0.049568
-0.0522983
-0.0612579
-0.149621
-0.145075
-0.144393
-0.143711
-0.14303
-0.142346
-0.243552
-0.243629
-0.243705
-0.243782
-0.243859
-0.245901
-0.345164
-0.344376
-0.344376
-0.344376
-0.344376
-0.344376
-0.444559
-0.444559
-0.444559
-0.444559
-0.444559
-0.444847
-0.544305
-0.5442
-0.5442
-0.5442
-0.5442
-0.5442
-0.543969
-0.543969
-0.543969
-0.543969
-0.543969
-0.544088
-0.643196
-0.643157
-0.643157
-0.643157
-0.643157
-0.643157
-0.642856
-0.642856
-0.642856
-0.642856
-0.642856
-0.642914
-0.642706
-0.642638
-0.642638
-0.642638
-0.642638
-0.642638
-0.642518
-0.642518
-0.642518
-0.642518
-0.642518
-0.64258
-0.642559
-0.642533
-0.642537
-0.642538
-0.642541
-0.642544
-0.642789
-0.642782
-0.642775
-0.642766
-0.642754
-0.642677
-0.642776
-0.642873
-0.642883
-0.642895
-0.642916
-0.642915
-0.642965
-0.642973
-0.642962
-0.642964
-0.642962
-0.642932
-0.643445
-0.643499
-0.643505
-0.643502
-0.643502
-0.643501
-0.644577
-0.644582
-0.644572
-0.644584
-0.644574
-0.644397
-0.645847
-0.646233
-0.646237
-0.646226
-0.646235
-0.646231
-0.648468
-0.64847
-0.648475
-0.648478
-0.648474
-0.647821
-0.65021
-0.651161
-0.651166
-0.651161
-0.651153
-0.651157
-0.653661
-0.653662
-0.65367
-0.653674
-0.653677
-0.652516
-0.653225
-0.654543
-0.654518
-0.65451
-0.654488
-0.654485
-0.54896
-0.549033
-0.549112
-0.549205
-0.549318
-0.549085
-0.445065
-0.443229
-0.44266
-0.442184
-0.441787
-0.441464
-0.332424
-0.333577
-0.334928
-0.336565
-0.338531
-0.34359
-0.247314
-0.235394
-0.230355
-0.226152
-0.222633
-0.219727
-0.125713
-0.130371
-0.135956
-0.142658
-0.150695
-0.17016
-0.126785
-0.0995986
-0.0890932
-0.080334
-0.0730321
-0.0669463
-0.055365
-0.0619325
-0.0698211
-0.0792784
-0.0906263
-0.121109
-0.102545
-0.0664927
-0.0549511
-0.0453268
-0.0373058
-0.0306164
-0.0307627
-0.0374153
-0.0453979
-0.054974
-0.0664634
-0.101797
-0.101681
-0.0665636
-0.055074
-0.0454959
-0.0375126
-0.0308609
-0.0309359
-0.0375884
-0.045573
-0.055151
-0.0666444
-0.101733
-0.101823
-0.066706
-0.0552076
-0.0456294
-0.0376421
-0.0309871
-0.031021
-0.0376757
-0.0456653
-0.0552485
-0.0667517
-0.101893
-0.0677677
-0.0359609
-0.0259067
-0.0175291
-0.0105494
-0.00473052
-0.00474555
-0.0105678
-0.0175496
-0.0259325
-0.0359865
-0.0678103
-0.0395309
-0.0104477
-0.000244612
0.00825487
0.0153425
0.021245
0.0404933
0.033337
0.0247518
0.014449
0.00208484
-0.0331598
-0.0252765
0.0119255
0.0262671
0.0382183
0.0481789
0.0564761
0.0735881
0.065373
0.0555146
0.0436845
0.0294915
-0.0103852
0.00800845
0.0509782
0.0630162
0.0730494
0.0814132
0.0883786
0.0973829
0.0917
0.0848838
0.0767047
0.0668897
0.0329679
0.0475345
0.0727115
0.0826923
0.0910088
0.0979376
0.103712
0.109368
0.102498
0.0942587
0.0843788
0.0725376
0.0439076
0.0125743
0.03354
0.0406316
0.0466174
0.0517398
0.0561886
-0.0413655
-0.0440946
-0.0468225
-0.0495529
-0.0522838
-0.0612428
-0.149629
-0.145091
-0.144409
-0.143725
-0.143042
-0.142361
-0.243598
-0.243674
-0.243751
-0.24383
-0.243906
-0.245938
-0.345238
-0.344459
-0.344459
-0.344459
-0.344459
-0.344459
-0.444699
-0.444699
-0.444699
-0.444699
-0.444699
-0.444976
-0.544539
-0.544452
-0.544452
-0.544452
-0.544452
-0.544452
-0.644037
-0.644037
-0.644037
-0.644037
-0.644037
-0.64401
-0.64356
-0.64355
-0.64355
-0.64355
-0.64355
-0.64355
-0.742885
-0.742885
-0.742885
-0.742885
-0.742885
-0.74281
-0.742162
-0.742183
-0.742183
-0.742183
-0.742183
-0.742183
-0.741694
-0.741694
-0.741694
-0.741694
-0.741694
-0.74171
-0.741419
-0.741384
-0.741384
-0.741384
-0.741384
-0.741384
-0.741218
-0.741218
-0.741218
-0.741218
-0.741218
-0.741257
-0.741214
-0.741185
-0.741186
-0.741186
-0.741188
-0.741189
-0.741307
-0.741306
-0.741305
-0.741306
-0.741305
-0.741288
-0.741421
-0.741464
-0.741465
-0.741468
-0.741471
-0.741473
-0.741754
-0.741754
-0.741754
-0.741753
-0.741753
-0.741701
-0.742326
-0.742449
-0.742446
-0.742442
-0.742451
-0.742446
-0.743706
-0.7437
-0.7437
-0.743697
-0.743706
-0.743429
-0.745144
-0.74566
-0.745654
-0.745666
-0.745657
-0.745663
-0.748449
-0.748448
-0.748451
-0.748443
-0.748446
-0.747593
-0.750736
-0.75202
-0.752018
-0.752018
-0.752019
-0.75202
-0.755826
-0.755839
-0.755822
-0.755835
-0.755832
-0.754147
-0.757007
-0.758302
-0.758303
-0.758289
-0.758304
-0.758289
-0.75235
-0.752355
-0.752354
-0.75237
-0.752371
-0.750912
-0.650128
-0.651441
-0.651384
-0.651351
-0.651308
-0.65129
-0.546537
-0.546711
-0.546889
-0.547108
-0.547381
-0.547572
-0.444606
-0.441806
-0.440732
-0.439835
-0.439084
-0.438471
-0.328998
-0.330806
-0.332963
-0.335563
-0.338673
-0.345489
-0.25538
-0.239736
-0.233225
-0.227795
-0.223265
-0.219495
-0.140962
-0.146843
-0.153887
-0.162348
-0.172484
-0.20129
-0.161034
-0.133955
-0.123863
-0.115445
-0.108425
-0.102566
-0.0845303
-0.0909589
-0.0986673
-0.107913
-0.118999
-0.15328
-0.152029
-0.118423
-0.107526
-0.0984407
-0.0908694
-0.0845571
-0.0557039
-0.0621199
-0.0698269
-0.0790695
-0.0901589
-0.119904
-0.11972
-0.090195
-0.0791337
-0.0699144
-0.0622318
-0.0558306
-0.0559248
-0.0623245
-0.0700028
-0.0792194
-0.0902759
-0.11978
-0.119869
-0.0903462
-0.0792866
-0.0700677
-0.0623847
-0.0559853
-0.0560216
-0.062423
-0.0701087
-0.0793325
-0.0903971
-0.119938
-0.119981
-0.0904265
-0.0793608
-0.0701328
-0.0624469
-0.0560403
-0.03104
-0.0376946
-0.0456865
-0.0552723
-0.0667802
-0.101938
-0.101965
-0.0667936
-0.0552854
-0.0456996
-0.0377078
-0.0310478
-0.00475802
-0.0105759
-0.0175609
-0.0259438
-0.036
-0.0678366
-0.0395527
-0.0104602
-0.00025517
0.00824653
0.0153318
0.0212375
0.0404854
0.0333304
0.0247419
0.0144385
0.00207323
-0.0331824
-0.0252948
0.0119177
0.0262603
0.0382106
0.0481718
0.056471
0.073586
0.0653707
0.0555107
0.0436847
0.0294905
-0.0103933
0.00800981
0.0509815
0.0630193
0.0730497
0.0814117
0.0883788
0.0973833
0.0917023
0.0848881
0.07671
0.0668953
0.0329775
0.0475421
0.0727153
0.0826962
0.0910114
0.0979407
0.103714
0.109369
0.102498
0.0942598
0.0843814
0.0725403
0.0439149
0.0125879
0.0335492
0.0406396
0.0466264
0.051746
0.0561927
-0.0413421
-0.0440709
-0.0467997
-0.0495301
-0.0522621
-0.0612182
-0.149615
-0.14508
-0.144398
-0.143714
-0.14303
-0.142348
-0.243612
-0.243688
-0.243767
-0.243845
-0.243921
-0.245949
-0.345287
-0.344513
-0.344513
-0.344513
-0.344513
-0.344513
-0.444821
-0.444821
-0.444821
-0.444821
-0.444821
-0.445089
-0.544783
-0.544719
-0.544719
-0.544719
-0.544719
-0.544719
-0.644593
-0.644593
-0.644593
-0.644593
-0.644593
-0.644516
-0.744681
-0.744947
-0.744947
-0.744947
-0.744947
-0.744947
-0.743824
-0.743825
-0.743825
-0.743825
-0.743825
-0.743667
-0.843845
-0.8442
-0.8442
-0.8442
-0.8442
-0.8442
-0.842456
-0.842456
-0.842456
-0.842456
-0.842456
-0.842269
-0.841137
-0.841218
-0.841218
-0.841218
-0.841218
-0.841218
-0.840418
-0.840418
-0.840418
-0.840418
-0.840418
-0.840398
-0.839956
-0.839945
-0.839945
-0.839945
-0.839945
-0.839945
-0.839693
-0.839693
-0.839693
-0.839693
-0.839693
-0.839719
-0.839631
-0.839599
-0.839599
-0.839599
-0.839597
-0.839597
-0.839622
-0.839626
-0.83963
-0.839634
-0.839639
-0.839655
-0.839786
-0.839791
-0.839791
-0.839784
-0.839781
-0.839779
-0.840145
-0.84015
-0.840141
-0.840145
-0.840147
-0.840098
-0.840723
-0.840856
-0.84085
-0.840853
-0.840858
-0.840853
-0.842088
-0.842088
-0.842097
-0.842085
-0.842091
-0.841806
-0.843513
-0.844037
-0.844037
-0.844038
-0.844039
-0.844034
-0.846882
-0.846897
-0.846882
-0.846889
-0.846891
-0.846006
-0.849274
-0.850678
-0.850669
-0.850672
-0.85068
-0.850673
-0.854988
-0.854978
-0.854983
-0.854974
-0.854984
-0.852836
-0.856019
-0.858655
-0.858652
-0.858652
-0.858651
-0.858654
-0.859239
-0.859244
-0.85924
-0.859243
-0.85924
-0.858011
-0.901197
-0.901608
-0.901597
-0.901588
-0.901577
-0.90157
-0.925075
-0.933756
-0.940994
-0.947028
-0.952057
-0.952054
-0.947027
-0.940997
-0.933765
-0.925087
-0.925098
-0.933775
-0.941009
-0.947032
-0.952047
-0.952048
-0.947026
-0.941007
-0.933779
-0.925115
-0.92513
-0.93379
-0.941015
-0.947021
-0.952039
-0.952187
-0.947023
-0.940833
-0.9334
-0.924481
-0.925693
-0.934395
-0.941651
-0.94769
-0.952727
-0.90991
-0.903476
-0.895756
-0.88649
-0.875369
-0.848784
-0.805061
-0.838024
-0.85159
-0.862896
-0.872317
-0.880165
-0.880012
-0.871998
-0.862375
-0.850829
-0.836973
-0.837519
-0.85119
-0.86258
-0.872073
-0.879981
-0.879996
-0.872085
-0.862588
-0.851192
-0.837516
-0.837516
-0.851199
-0.862595
-0.872092
-0.880008
-0.880025
-0.872105
-0.862602
-0.851198
-0.837516
-0.837514
-0.851199
-0.862605
-0.87211
-0.880029
-0.865297
-0.856808
-0.84662
-0.834393
-0.819719
-0.81972
-0.83439
-0.846614
-0.856802
-0.865289
-0.865281
-0.856794
-0.846609
-0.834386
-0.819721
-0.819717
-0.834382
-0.846601
-0.856782
-0.865267
-0.865251
-0.856771
-0.846592
-0.834376
-0.819717
-0.818234
-0.833326
-0.845903
-0.85638
-0.865107
-0.86506
-0.856228
-0.845627
-0.832902
-0.817632
-0.782402
-0.782337
-0.782409
-0.782394
-0.782375
-0.782357
-0.782353
-0.718831
-0.718889
-0.718934
-0.719003
-0.719081
-0.717988
-0.636453
-0.636853
-0.636478
-0.636178
-0.635909
-0.635701
-0.536318
-0.537031
-0.537861
-0.538885
-0.540092
-0.542431
-0.446165
-0.43974
-0.436581
-0.433955
-0.43175
-0.429924
-0.321623
-0.325329
-0.329761
-0.33509
-0.341473
-0.356627
-0.302163
-0.273993
-0.264391
-0.25639
-0.249715
-0.244153
-0.204078
-0.209659
-0.216369
-0.22441
-0.234047
-0.260247
-0.222139
-0.195123
-0.185138
-0.176808
-0.169868
-0.164081
-0.150273
-0.156535
-0.164042
-0.173048
-0.183853
-0.214791
-0.191919
-0.153461
-0.141739
-0.131967
-0.123821
-0.11703
-0.116782
-0.12347
-0.131486
-0.141107
-0.152651
-0.190287
-0.189912
-0.152597
-0.141088
-0.131495
-0.123506
-0.11684
-0.0846753
-0.0909736
-0.0985347
-0.107608
-0.118489
-0.151844
-0.151889
-0.11857
-0.107692
-0.0986263
-0.0910703
-0.0847787
-0.0848438
-0.0911386
-0.098697
-0.107766
-0.118651
-0.151983
-0.152058
-0.118705
-0.107815
-0.0987428
-0.0911821
-0.0848852
-0.0849053
-0.0912048
-0.0987712
-0.107842
-0.118737
-0.152105
-0.152136
-0.118756
-0.107861
-0.0987872
-0.0912188
-0.0849157
-0.0560513
-0.0624606
-0.0701488
-0.0793768
-0.0904443
-0.120008
-0.120023
-0.0904542
-0.0793832
-0.0701566
-0.0624661
-0.0560568
-0.0310536
-0.0377135
-0.0457054
-0.0552957
-0.0668019
-0.10198
-0.067847
-0.0360072
-0.0259486
-0.0175683
-0.0105809
-0.00476297
0.0212324
0.0153268
0.00824141
-0.000262354
-0.0104658
-0.0395629
-0.0331932
0.00206809
0.0144333
0.0247368
0.0333272
0.0404828
0.0564733
0.04817
0.0382091
0.0262605
0.0119179
-0.0253007
-0.0103922
0.0294964
0.0436905
0.0555158
0.0653717
0.073587
0.0883791
0.0814144
0.073055
0.0630247
0.0509876
0.00801633
0.0329866
0.0669024
0.0767134
0.0848908
0.0917059
0.0973839
0.103716
0.0979414
0.0910112
0.0826982
0.072721
0.0475504
0.0439251
0.0725459
0.0843848
0.0942607
0.102498
0.109368
0.056205
0.0517588
0.0466386
0.0406524
0.0335628
0.0126036
-0.0611983
-0.0522442
-0.0495132
-0.0467842
-0.0440531
-0.0413232
-0.142335
-0.143018
-0.1437
-0.144383
-0.145066
-0.149601
-0.245953
-0.243925
-0.243848
-0.243771
-0.243693
-0.243616
-0.344551
-0.344551
-0.344551
-0.344551
-0.344551
-0.345321
-0.445191
-0.44493
-0.44493
-0.44493
-0.44493
-0.44493
-0.544976
-0.544975
-0.544976
-0.544975
-0.544975
-0.545018
-0.645022
-0.645152
-0.645152
-0.645152
-0.645152
-0.645152
-0.746116
-0.746116
-0.746116
-0.746116
-0.746116
-0.745727
-0.847858
-0.848731
-0.848731
-0.848731
-0.848731
-0.848731
-0.846384
-0.846384
-0.846384
-0.846384
-0.846384
-0.845791
-0.948335
-0.949513
-0.949513
-0.949513
-0.949513
-0.949513
-0.94548
-0.94548
-0.94548
-0.94548
-0.94548
-0.944798
-0.94207
-0.942423
-0.942423
-0.942423
-0.942423
-0.942423
-0.940376
-0.940376
-0.940376
-0.940376
-0.940376
-0.940214
-0.939062
-0.93912
-0.93912
-0.93912
-0.93912
-0.93912
-0.93841
-0.93841
-0.93841
-0.93841
-0.93841
-0.938402
-0.938058
-0.938043
-0.938042
-0.938042
-0.938042
-0.938042
-0.937874
-0.937877
-0.937879
-0.937878
-0.93788
-0.937909
-0.937881
-0.937851
-0.937844
-0.937839
-0.937833
-0.937828
-0.937942
-0.937946
-0.93795
-0.937956
-0.937966
-0.937976
-0.938248
-0.938284
-0.938279
-0.938279
-0.938279
-0.938279
-0.938873
-0.938873
-0.938873
-0.938876
-0.938873
-0.938768
-0.939664
-0.93989
-0.9399
-0.939889
-0.939898
-0.939893
-0.94152
-0.941514
-0.941514
-0.941517
-0.941517
-0.941091
-0.943208
-0.943937
-0.943938
-0.94394
-0.943927
-0.943943
-0.947224
-0.94722
-0.947229
-0.947231
-0.94722
-0.946002
-0.949075
-0.951227
-0.951233
-0.951236
-0.951226
-0.951229
-0.955657
-0.955642
-0.955656
-0.955651
-0.955649
-0.9516
-0.967685
-0.985595
-0.991733
-0.996849
-1.00111
-1.00466
-1.00411
-1.0041
-1.0041
-1.0041
-1.00411
-1.0006
-1.00061
-1.00061
-1.00061
-1.00062
-0.996422
-0.996417
-0.996409
-0.996403
-0.996393
-0.991342
-0.991355
-0.991365
-0.991385
-0.991402
-0.985365
-0.985337
-0.985314
-0.9853
-0.985279
-0.969894
-0.969896
-0.969916
-0.969928
-0.969942
-1.05309
-1.05306
-1.05305
-1.05305
-1.05303
-1.05703
-1.05705
-1.05707
-1.05709
-1.05712
-1.05957
-1.05955
-1.05953
-1.05952
-1.05951
-1.06157
-1.06157
-1.06159
-1.0616
-1.06161
-1.06331
-1.06331
-1.06329
-1.06329
-1.06329
-1.06472
-1.06472
-1.06472
-1.06473
-1.06472
-1.06517
-1.06372
-1.06196
-1.05985
-1.05732
-1.05276
-1.0525
-1.0579
-1.06047
-1.06262
-1.0644
-1.06589
-1.00575
-1.00227
-0.998097
-0.993087
-0.98707
-0.96538
-0.902002
-0.904914
-0.929483
-0.937239
-0.943706
-0.949092
-0.953573
-0.910384
-0.904615
-0.897694
-0.88939
-0.879426
-0.851437
-0.80734
-0.84116
-0.853824
-0.864379
-0.873169
-0.880498
-0.865272
-0.856756
-0.846535
-0.834271
-0.81955
-0.784411
-0.783327
-0.81859
-0.833628
-0.846158
-0.856599
-0.865295
-0.865128
-0.856115
-0.845295
-0.832307
-0.81672
-0.781275
-0.780836
-0.817161
-0.83263
-0.84552
-0.856256
-0.865204
-0.865345
-0.865357
-0.865368
-0.865373
-0.86538
-0.85663
-0.856626
-0.856622
-0.856616
-0.856607
-0.846121
-0.846124
-0.846126
-0.846126
-0.846128
-0.833523
-0.833525
-0.83353
-0.833532
-0.833534
-0.818433
-0.818422
-0.818415
-0.818404
-0.818397
-0.780361
-0.780391
-0.780427
-0.78048
-0.780531
-0.716456
-0.716186
-0.715957
-0.71577
-0.715607
-0.630728
-0.631257
-0.631899
-0.632649
-0.63357
-0.634425
-0.541654
-0.537044
-0.534656
-0.532659
-0.531012
-0.529615
-0.420807
-0.423735
-0.42727
-0.431514
-0.436588
-0.447958
-0.370547
-0.352053
-0.344554
-0.33831
-0.333096
-0.328746
-0.270596
-0.275938
-0.282348
-0.290035
-0.299259
-0.325128
-0.317665
-0.288003
-0.278402
-0.270396
-0.263724
-0.258163
-0.220278
-0.226554
-0.234085
-0.24312
-0.253955
-0.292173
-0.251775
-0.21829
-0.207728
-0.198918
-0.19157
-0.185448
-0.184871
-0.190847
-0.198011
-0.20661
-0.21692
-0.249831
-0.212898
-0.182758
-0.172262
-0.163518
-0.156223
-0.150147
-0.150116
-0.156161
-0.16341
-0.172103
-0.18254
-0.2124
-0.212338
-0.182541
-0.17212
-0.163437
-0.156202
-0.150165
-0.116925
-0.12358
-0.131565
-0.141148
-0.152648
-0.189887
-0.189961
-0.152715
-0.141214
-0.131629
-0.123644
-0.116986
-0.117026
-0.123688
-0.131675
-0.141264
-0.152766
-0.190031
-0.190082
-0.1528
-0.141296
-0.131704
-0.123712
-0.117053
-0.117065
-0.123724
-0.13172
-0.141311
-0.152821
-0.190113
-0.19013
-0.152832
-0.14132
-0.131726
-0.12373
-0.117071
-0.0849209
-0.0912242
-0.0987923
-0.107871
-0.118764
-0.152151
-0.152161
-0.118769
-0.107874
-0.098792
-0.0912263
-0.0849213
-0.0560569
-0.0624662
-0.070159
-0.0793862
-0.0904592
-0.120031
-0.101988
-0.0668064
-0.0553001
-0.0457074
-0.0377129
-0.0310562
-0.00476164
-0.0105866
-0.0175705
-0.0259534
-0.0360122
-0.0678543
-0.0395683
-0.0104685
-0.000264349
0.00823727
0.0153274
0.0212298
0.0404837
0.0333261
0.024737
0.0144341
0.00206728
-0.0331969
-0.0253006
0.0119195
0.0262628
0.0382123
0.0481714
0.0564762
0.0735883
0.065375
0.0555217
0.0436945
0.0295017
-0.0103894
0.00802071
0.0509935
0.0630287
0.0730603
0.0814175
0.0883819
0.0973851
0.0917081
0.0848922
0.0767158
0.0669062
0.0329938
0.0475583
0.0727236
0.0826996
0.0910139
0.0979427
0.103716
0.109368
0.102499
0.094263
0.0843871
0.0725484
0.043931
0.0126108
0.0335647
0.0406543
0.0466401
0.0517598
0.0562069
-0.0413139
-0.0440424
-0.0467726
-0.0495028
-0.0522325
-0.0611844
-0.149593
-0.145058
-0.144373
-0.14369
-0.143008
-0.142325
-0.243619
-0.243696
-0.243772
-0.243849
-0.243928
-0.245955
-0.345348
-0.344581
-0.344581
-0.344581
-0.344581
-0.344581
-0.44502
-0.44502
-0.44502
-0.44502
-0.44502
-0.445272
-0.545211
-0.545187
-0.545187
-0.545187
-0.545187
-0.545187
-0.645625
-0.645625
-0.645625
-0.645625
-0.645625
-0.645449
-0.746623
-0.747123
-0.747123
-0.747123
-0.747123
-0.747123
-0.850798
-0.850798
-0.850798
-0.850798
-0.850798
-0.849658
-0.956314
-0.957489
-0.957512
-0.957536
-0.957559
-0.957585
-0.953909
-0.953909
-0.953909
-0.953909
-0.95391
-0.95241
-1.0616
-1.06196
-1.06202
-1.06209
-1.06215
-1.06222
-1.05449
-1.05449
-1.05449
-1.05449
-1.05449
-1.05329
-1.0465
-1.04766
-1.04766
-1.04766
-1.04766
-1.04766
-1.04274
-1.04274
-1.04274
-1.04274
-1.04274
-1.04216
-1.03937
-1.03963
-1.03963
-1.03963
-1.03963
-1.03963
-1.03781
-1.03781
-1.03781
-1.03781
-1.03781
-1.03771
-1.0368
-1.03682
-1.03682
-1.03682
-1.03682
-1.03682
-1.03632
-1.03632
-1.03632
-1.03632
-1.03632
-1.03633
-1.03611
-1.03609
-1.03609
-1.03609
-1.03609
-1.03609
-1.03599
-1.03599
-1.03599
-1.036
-1.036
-1.03603
-1.03607
-1.03605
-1.03605
-1.03604
-1.03603
-1.03603
-1.03626
-1.03626
-1.03626
-1.03626
-1.03626
-1.03625
-1.03658
-1.03664
-1.03664
-1.03665
-1.03664
-1.03664
-1.03731
-1.03731
-1.03731
-1.03731
-1.03731
-1.03717
-1.03813
-1.03838
-1.03838
-1.03838
-1.03838
-1.03838
-1.03999
-1.04
-1.03999
-1.03999
-1.03999
-1.03957
-1.04153
-1.0422
-1.0422
-1.0422
-1.0422
-1.0422
-1.04498
-1.04499
-1.04498
-1.04499
-1.04498
-1.04384
-1.04723
-1.04852
-1.04852
-1.04852
-1.04853
-1.04852
-1.13707
-1.13706
-1.13707
-1.13707
-1.13707
-1.13811
-1.13577
-1.13333
-1.13223
-1.13132
-1.13056
-1.12992
-1.12962
-1.12961
-1.12962
-1.12961
-1.12961
-1.13022
-1.13021
-1.13023
-1.13022
-1.13024
-1.13097
-1.13096
-1.13095
-1.13094
-1.13094
-1.1318
-1.13181
-1.13183
-1.13184
-1.13186
-1.13292
-1.1329
-1.13287
-1.13286
-1.13284
-1.13495
-1.13495
-1.13497
-1.13498
-1.135
-1.22015
-1.22013
-1.22012
-1.22012
-1.2201
-1.20671
-1.20673
-1.20675
-1.20677
-1.2068
-1.20238
-1.20236
-1.20235
-1.20233
-1.20232
-1.19866
-1.19867
-1.19867
-1.19868
-1.1987
-1.19563
-1.19562
-1.19562
-1.19561
-1.19561
-1.19306
-1.19306
-1.19306
-1.19307
-1.19307
-1.19335
-1.19594
-1.19904
-1.20277
-1.20723
-1.22255
-1.22526
-1.20711
-1.20278
-1.19917
-1.19617
-1.19366
-1.13049
-1.13114
-1.13191
-1.13284
-1.13396
-1.13687
-1.13743
-1.13421
-1.13313
-1.13224
-1.13149
-1.13086
-1.06638
-1.06496
-1.06324
-1.06118
-1.05871
-1.05289
-0.965331
-0.989186
-0.994796
-0.999466
-1.00336
-1.0066
-1.00706
-1.00392
-1.00015
-0.995616
-0.990181
-0.967153
-0.907496
-0.93156
-0.938841
-0.944908
-0.949963
-0.954169
-0.910584
-0.905134
-0.898596
-0.890747
-0.881333
-0.852493
-0.807831
-0.842668
-0.854919
-0.865127
-0.873635
-0.880724
-0.865382
-0.857036
-0.847017
-0.834995
-0.820568
-0.785361
-0.784272
-0.819619
-0.834354
-0.84663
-0.85686
-0.865382
-0.880726
-0.873291
-0.864375
-0.85367
-0.840824
-0.805541
-0.805022
-0.839323
-0.852602
-0.863662
-0.872879
-0.880558
-0.880319
-0.872122
-0.862284
-0.850476
-0.836303
-0.802517
-0.798765
-0.796101
-0.795943
-0.795806
-0.795701
-0.795606
-0.834189
-0.848996
-0.861335
-0.871619
-0.880184
-0.880182
-0.871623
-0.861345
-0.849011
-0.834212
-0.834237
-0.849026
-0.861354
-0.871623
-0.880176
-0.880169
-0.871622
-0.861362
-0.849046
-0.834268
-0.834302
-0.849069
-0.861371
-0.871624
-0.880161
-0.880206
-0.871705
-0.861498
-0.84925
-0.834548
-0.871373
-0.88366
-0.893904
-0.902432
-0.909541
-0.909216
-0.902081
-0.893525
-0.883245
-0.870918
-0.870864
-0.883212
-0.893505
-0.902077
-0.909218
-0.909217
-0.902068
-0.893481
-0.883187
-0.870824
-0.870785
-0.883162
-0.893468
-0.902061
-0.909218
-0.909219
-0.902054
-0.893459
-0.883142
-0.87076
-0.837147
-0.837271
-0.837415
-0.837584
-0.837793
-0.840831
-0.812875
-0.807868
-0.807285