/*--------------------------------*- C++ -*----------------------------------*\
| =========                 |                                                 |
| \\      /  F ield         | OpenFOAM: The Open Source CFD Toolbox           |
|  \\    /   O peration     | Version:  2212                                  |
|   \\  /    A nd           | Website:  www.openfoam.com                      |
|    \\/     M anipulation  |                                                 |
\*---------------------------------------------------------------------------*/
FoamFile
{
    version     2.0;
    format      ascii;
    arch        "LSB;label=32;scalar=64";
    class       volScalarField;
    location    "100";
    object      T;
}
// * * * * * * * * * * * * * * * * * * * * * * * * * * * * * * * * * * * * * //

dimensions      [0 0 0 1 0 0 0];

internalField   nonuniform List<scalar> 
248319
(
300.033
300.021
300.011
300.008
300.007
300.006
300.005
300.005
300.005
300.007
300.009
300.014
300.025
300.03
300.017
300.012
300.009
300.008
300.007
300.014
300.014
300.015
300.018
300.022
300.036
300.026
300.015
300.013
300.012
300.011
300.011
300.009
300.008
300.009
300.01
300.012
300.022
300.029
300.016
300.013
300.012
300.012
300.012
300.007
300.007
300.009
300.012
300.017
300.029
300.03
300.015
300.01
300.007
300.006
300.005
300.004
300.004
300.005
300.008
300.013
300.026
300.022
300.012
300.008
300.006
300.004
300.004
300.003
300.004
300.005
300.008
300.013
300.028
300.027
300.012
300.008
300.006
300.004
300.004
300.007
300.007
300.008
300.011
300.017
300.035
300.042
300.027
300.022
300.019
300.017
300.016
300.02
300.02
300.021
300.023
300.027
300.038
300.03
300.019
300.017
300.016
300.016
300.017
300.017
300.016
300.015
300.016
300.018
300.027
300.026
300.017
300.013
300.012
300.011
300.012
300.008
300.009
300.011
300.015
300.02
300.028
300.032
300.021
300.014
300.01
300.007
300.007
300.006
300.007
300.01
300.016
300.025
300.039
300.032
300.013
300.008
300.006
300.004
300.004
300.003
300.003
300.005
300.007
300.012
300.027
300.025
300.016
300.01
300.007
300.005
300.004
300.004
300.004
300.006
300.009
300.014
300.025
300.051
300.026
300.016
300.011
300.009
300.008
300.005
300.005
300.006
300.008
300.012
300.03
300.028
300.013
300.008
300.006
300.005
300.005
300.007
300.007
300.009
300.012
300.019
300.041
300.05
300.034
300.027
300.022
300.019
300.019
300.024
300.024
300.026
300.03
300.035
300.047
300.04
300.031
300.027
300.024
300.023
300.023
300.02
300.019
300.02
300.022
300.025
300.034
300.029
300.022
300.02
300.019
300.018
300.019
300.015
300.014
300.014
300.015
300.016
300.023
300.023
300.016
300.012
300.011
300.011
300.011
300.008
300.008
300.01
300.014
300.019
300.025
300.029
300.021
300.014
300.01
300.007
300.007
300.007
300.008
300.011
300.017
300.026
300.038
300.054
300.035
300.022
300.013
300.009
300.008
300.007
300.008
300.011
300.018
300.03
300.051
300.033
300.012
300.007
300.005
300.004
300.003
300.003
300.003
300.004
300.006
300.011
300.026
300.023
300.013
300.008
300.005
300.004
300.004
300.009
300.01
300.013
300.018
300.029
300.07
300.064
300.036
300.023
300.015
300.012
300.011
300.018
300.019
300.025
300.038
300.06
300.108
300.092
300.046
300.03
300.02
300.016
300.015
300.012
300.012
300.015
300.021
300.032
300.082
300.056
300.024
300.016
300.011
300.009
300.008
300.009
300.009
300.011
300.016
300.024
300.051
300.056
300.04
300.032
300.026
300.022
300.021
300.027
300.027
300.03
300.035
300.041
300.051
300.042
300.035
300.031
300.028
300.026
300.026
300.026
300.024
300.025
300.027
300.029
300.034
300.032
300.026
300.023
300.022
300.021
300.022
300.021
300.019
300.019
300.02
300.022
300.027
300.025
300.019
300.017
300.016
300.016
300.017
300.014
300.013
300.013
300.013
300.014
300.021
300.02
300.014
300.011
300.01
300.01
300.01
300.007
300.008
300.009
300.013
300.017
300.022
300.026
300.019
300.013
300.009
300.007
300.006
300.007
300.007
300.011
300.016
300.025
300.036
300.055
300.036
300.023
300.014
300.01
300.009
300.013
300.015
300.022
300.035
300.057
300.089
300.078
300.048
300.03
300.018
300.013
300.011
300.007
300.008
300.012
300.02
300.035
300.063
300.031
300.011
300.006
300.004
300.003
300.003
300.002
300.002
300.003
300.005
300.009
300.024
300.022
300.01
300.007
300.004
300.003
300.003
300.009
300.009
300.011
300.015
300.024
300.067
300.14
300.043
300.026
300.019
300.015
300.014
300.015
300.016
300.021
300.03
300.049
300.126
300.159
300.067
300.039
300.026
300.021
300.02
300.02
300.021
300.027
300.039
300.062
300.124
300.1
300.045
300.03
300.022
300.018
300.016
300.015
300.016
300.02
300.027
300.04
300.091
300.066
300.03
300.02
300.014
300.011
300.01
300.011
300.011
300.014
300.019
300.029
300.06
300.062
300.045
300.036
300.03
300.025
300.024
300.03
300.03
300.033
300.039
300.045
300.054
300.044
300.038
300.034
300.031
300.029
300.03
300.029
300.028
300.027
300.029
300.031
300.035
300.028
300.025
300.024
300.024
300.026
300.028
300.024
300.022
300.021
300.022
300.024
300.027
300.022
300.019
300.019
300.019
300.02
300.023
300.019
300.017
300.017
300.017
300.018
300.022
300.021
300.016
300.015
300.015
300.015
300.016
300.013
300.012
300.012
300.012
300.013
300.018
300.018
300.012
300.01
300.009
300.009
300.009
300.006
300.007
300.009
300.011
300.015
300.02
300.023
300.017
300.012
300.008
300.006
300.006
300.006
300.007
300.01
300.015
300.023
300.033
300.056
300.037
300.023
300.014
300.01
300.009
300.014
300.016
300.024
300.039
300.063
300.099
300.164
300.103
300.064
300.04
300.028
300.026
300.021
300.024
300.033
300.053
300.085
300.134
300.104
300.064
300.039
300.024
300.017
300.015
300.008
300.009
300.013
300.021
300.037
300.069
300.031
300.012
300.006
300.004
300.003
300.003
300.002
300.002
300.003
300.005
300.008
300.021
300.021
300.009
300.006
300.004
300.003
300.003
300.01
300.01
300.012
300.015
300.023
300.064
300.15
300.048
300.03
300.022
300.019
300.018
300.033
300.035
300.041
300.055
300.086
300.216
300.192
300.07
300.041
300.028
300.023
300.022
300.047
300.05
300.061
300.084
300.12
300.246
300.193
300.108
300.075
300.051
300.04
300.037
300.031
300.034
300.044
300.062
300.087
300.138
300.108
300.056
300.04
300.029
300.024
300.022
300.018
300.019
300.024
300.032
300.045
300.1
300.076
300.035
300.024
300.017
300.014
300.013
300.012
300.013
300.016
300.022
300.033
300.069
300.068
300.051
300.041
300.033
300.029
300.027
300.034
300.034
300.037
300.042
300.049
300.058
300.046
300.04
300.037
300.034
300.033
300.034
300.034
300.031
300.03
300.031
300.033
300.036
300.028
300.026
300.026
300.027
300.029
300.033
300.033
300.028
300.024
300.021
300.021
300.021
300.021
300.02
300.02
300.021
300.023
300.027
300.026
300.022
300.018
300.016
300.016
300.016
300.017
300.016
300.015
300.016
300.018
300.021
300.018
300.016
300.015
300.014
300.015
300.018
300.018
300.014
300.013
300.013
300.014
300.015
300.012
300.011
300.011
300.01
300.011
300.016
300.016
300.011
300.009
300.008
300.008
300.008
300.006
300.006
300.008
300.01
300.013
300.017
300.021
300.016
300.011
300.008
300.006
300.005
300.006
300.007
300.009
300.015
300.022
300.032
300.058
300.037
300.023
300.014
300.01
300.009
300.015
300.018
300.026
300.042
300.069
300.111
300.198
300.122
300.075
300.047
300.033
300.03
300.056
300.06
300.08
300.123
300.194
300.309
300.244
300.155
300.099
300.064
300.048
300.044
300.034
300.037
300.049
300.076
300.119
300.187
300.134
300.082
300.051
300.033
300.025
300.023
300.011
300.012
300.015
300.023
300.04
300.084
300.035
300.019
300.012
300.009
300.007
300.007
300.006
300.007
300.009
300.013
300.021
300.035
300.048
300.026
300.016
300.012
300.01
300.009
300.025
300.026
300.03
300.041
300.064
300.121
300.224
300.126
300.083
300.061
300.051
300.049
300.076
300.08
300.095
300.127
300.182
300.311
300.392
300.243
300.177
300.136
300.116
300.11
300.063
300.066
300.077
300.1
300.137
300.28
300.344
300.193
300.148
300.119
300.103
300.098
300.087
300.092
300.108
300.135
300.173
300.297
300.227
300.154
300.12
300.094
300.079
300.074
300.056
300.06
300.072
300.092
300.116
300.153
300.117
300.072
300.054
300.041
300.034
300.032
300.022
300.024
300.029
300.038
300.053
300.108
300.087
300.042
300.029
300.021
300.017
300.016
300.015
300.015
300.019
300.026
300.038
300.077
300.074
300.056
300.045
300.037
300.032
300.031
300.038
300.038
300.041
300.046
300.053
300.061
300.048
300.043
300.04
300.037
300.037
300.038
300.038
300.035
300.033
300.033
300.035
300.037
300.028
300.027
300.028
300.03
300.033
300.038
300.039
300.032
300.027
300.023
300.022
300.021
300.016
300.017
300.019
300.024
300.031
300.039
300.031
300.025
300.02
300.017
300.016
300.016
300.012
300.012
300.014
300.018
300.024
300.031
300.024
300.02
300.015
300.013
300.012
300.012
300.013
300.013
300.013
300.014
300.017
300.02
300.017
300.014
300.013
300.012
300.013
300.015
300.015
300.012
300.011
300.011
300.012
300.014
300.011
300.01
300.009
300.009
300.01
300.014
300.014
300.01
300.008
300.007
300.007
300.008
300.005
300.005
300.007
300.009
300.012
300.015
300.019
300.014
300.01
300.007
300.005
300.005
300.005
300.006
300.009
300.014
300.021
300.031
300.062
300.039
300.024
300.015
300.01
300.009
300.016
300.019
300.028
300.046
300.077
300.127
300.239
300.144
300.088
300.054
300.038
300.034
300.068
300.074
300.097
300.148
300.235
300.383
300.515
300.337
300.227
300.159
300.13
300.123
300.091
300.097
300.122
300.178
300.268
300.413
300.319
300.207
300.137
300.093
300.073
300.068
300.049
300.052
300.066
300.098
300.15
300.233
300.153
300.094
300.06
300.041
300.033
300.031
300.015
300.016
300.02
300.028
300.047
300.088
300.033
300.017
300.012
300.009
300.008
300.008
300.015
300.016
300.017
300.02
300.027
300.05
300.049
300.03
300.021
300.016
300.014
300.013
300.034
300.036
300.041
300.055
300.082
300.156
300.281
300.153
300.102
300.075
300.064
300.061
300.09
300.095
300.112
300.149
300.211
300.388
300.485
300.278
300.206
300.16
300.137
300.13
300.184
300.193
300.222
300.278
300.361
300.579
300.469
300.31
300.236
300.187
300.161
300.153
300.204
300.213
300.245
300.303
300.386
300.547
300.406
300.249
300.198
300.162
300.141
300.134
300.125
300.131
300.151
300.183
300.226
300.348
300.259
300.199
300.164
300.134
300.115
300.108
300.08
300.084
300.099
300.12
300.143
300.166
300.126
300.089
300.07
300.055
300.046
300.043
300.027
300.029
300.035
300.046
300.063
300.118
300.098
300.05
300.035
300.026
300.021
300.019
300.017
300.018
300.022
300.031
300.044
300.086
300.079
300.062
300.05
300.042
300.036
300.034
300.042
300.042
300.045
300.05
300.056
300.064
300.05
300.046
300.043
300.041
300.041
300.043
300.044
300.039
300.037
300.036
300.037
300.038
300.029
300.029
300.03
300.033
300.038
300.044
300.046
300.038
300.03
300.025
300.023
300.022
300.016
300.018
300.021
300.027
300.036
300.047
300.047
300.035
300.024
300.017
300.013
300.012
300.012
300.013
300.015
300.02
300.028
300.037
300.037
300.026
300.017
300.012
300.01
300.009
300.009
300.009
300.011
300.015
300.021
300.029
300.023
300.018
300.013
300.011
300.01
300.01
300.011
300.01
300.01
300.012
300.015
300.019
300.016
300.013
300.011
300.01
300.011
300.012
300.013
300.01
300.01
300.01
300.011
300.013
300.01
300.009
300.008
300.008
300.008
300.012
300.012
300.008
300.007
300.006
300.006
300.007
300.005
300.005
300.006
300.008
300.011
300.013
300.017
300.013
300.009
300.006
300.005
300.004
300.005
300.006
300.008
300.013
300.021
300.031
300.067
300.041
300.025
300.015
300.01
300.008
300.017
300.02
300.03
300.051
300.087
300.147
300.286
300.168
300.1
300.061
300.043
300.039
300.093
300.098
300.122
300.178
300.281
300.462
300.617
300.44
300.319
300.237
300.195
300.184
300.277
300.293
300.352
300.453
300.584
300.734
300.621
300.443
300.32
300.238
300.196
300.186
300.133
300.14
300.17
300.235
300.338
300.497
300.381
300.254
300.174
300.124
300.101
300.095
300.065
300.069
300.084
300.118
300.177
300.273
300.178
300.098
300.064
300.046
300.04
300.038
300.024
300.025
300.028
300.036
300.05
300.085
300.084
300.055
300.037
300.027
300.022
300.021
300.029
300.03
300.034
300.046
300.07
300.132
300.278
300.149
300.096
300.07
300.06
300.058
300.038
300.039
300.044
300.054
300.077
300.169
300.298
300.143
300.099
300.077
300.067
300.065
300.094
300.098
300.113
300.146
300.203
300.407
300.509
300.273
300.205
300.164
300.143
300.137
300.193
300.201
300.228
300.278
300.356
300.609
300.713
300.447
300.357
300.297
300.263
300.253
300.242
300.253
300.289
300.356
300.451
300.671
300.77
300.548
300.438
300.358
300.314
300.3
300.254
300.265
300.304
300.372
300.466
300.625
300.469
300.307
300.248
300.205
300.18
300.172
300.162
300.169
300.192
300.231
300.279
300.399
300.29
300.242
300.205
300.171
300.149
300.141
300.102
300.107
300.123
300.146
300.168
300.178
300.135
300.107
300.087
300.07
300.059
300.055
300.033
300.036
300.043
300.056
300.074
300.127
300.108
300.06
300.043
300.031
300.025
300.024
300.02
300.021
300.026
300.036
300.051
300.095
300.085
300.068
300.056
300.046
300.04
300.038
300.047
300.046
300.049
300.054
300.061
300.068
300.052
300.049
300.046
300.045
300.045
300.048
300.05
300.044
300.041
300.039
300.039
300.04
300.03
300.031
300.033
300.038
300.044
300.051
300.054
300.044
300.034
300.028
300.024
300.023
300.017
300.019
300.023
300.031
300.043
300.056
300.057
300.041
300.027
300.019
300.014
300.013
300.01
300.011
300.015
300.024
300.038
300.055
300.045
300.031
300.02
300.013
300.01
300.009
300.007
300.008
300.011
300.018
300.029
300.043
300.034
300.024
300.015
300.01
300.007
300.007
300.007
300.007
300.009
300.013
300.02
300.028
300.022
300.016
300.011
300.009
300.008
300.007
300.008
300.008
300.009
300.01
300.014
300.018
300.014
300.011
300.009
300.009
300.009
300.01
300.011
300.009
300.008
300.009
300.01
300.012
300.009
300.008
300.007
300.007
300.007
300.01
300.011
300.007
300.006
300.006
300.006
300.006
300.004
300.004
300.005
300.007
300.009
300.012
300.016
300.012
300.009
300.006
300.004
300.004
300.005
300.005
300.008
300.013
300.021
300.031
300.074
300.044
300.026
300.015
300.01
300.008
300.018
300.021
300.032
300.056
300.098
300.17
300.335
300.192
300.112
300.067
300.047
300.042
300.115
300.121
300.148
300.21
300.33
300.539
300.701
300.514
300.384
300.291
300.238
300.223
300.309
300.325
300.391
300.502
300.633
300.781
300.876
300.682
300.553
300.481
300.543
300.643
303.17
309.025
327.543
373.442
450.804
445.63
362.805
319.43
305.485
301.951
300.888
302.339
310.921
348.675
438.56
429.351
336.588
306.268
301.262
300.676
300.761
301.091
304.423
329.085
420.657
415.362
325.736
303.907
301.192
300.943
301.414
301.683
304.779
328.136
418.962
419.432
328.435
304.871
301.718
301.434
301.387
301.349
301.4
301.65
304.421
326.605
417.458
415.934
324.923
303.678
301.218
301.005
300.832
301.116
304.168
328.432
422.098
432.283
336.545
306.025
301.286
300.745
301.116
302.687
311.678
351.92
445.063
455.656
371.942
324.24
308.042
303.389
306.267
314.515
336.511
386.493
461.219
460.123
385.468
333.897
311.571
304.042
302.134
306.379
322.747
370.968
454.134
443.249
350.991
311.486
302.513
300.975
300.797
301.371
306.283
336.823
431.539
422.873
329.527
304.543
301.238
300.91
301.099
301.345
304.008
326.065
417.376
416.645
326.002
304.391
301.775
301.518
301.433
301.023
300.818
300.663
300.559
300.56
300.665
300.372
300.392
300.467
300.592
300.744
300.917
300.765
300.593
300.456
300.352
300.294
300.279
300.196
300.205
300.244
300.323
300.44
300.604
300.453
300.313
300.224
300.169
300.144
300.137
300.089
300.092
300.103
300.133
300.19
300.315
300.186
300.116
300.089
300.072
300.065
300.064
300.057
300.06
300.07
300.091
300.125
300.177
300.084
300.048
300.036
300.03
300.028
300.028
300.04
300.041
300.045
300.054
300.075
300.169
300.157
300.076
300.052
300.041
300.036
300.035
300.066
300.069
300.079
300.103
300.151
300.325
300.497
300.241
300.163
300.122
300.105
300.1
300.093
300.098
300.116
300.16
300.242
300.429
300.573
300.316
300.214
300.159
300.133
300.127
300.173
300.181
300.212
300.275
300.39
300.713
300.852
300.471
300.348
300.276
300.24
300.229
300.293
300.305
300.349
300.431
300.564
300.992
301.134
300.671
300.519
300.422
300.37
300.354
300.315
300.327
300.367
300.437
300.539
300.817
300.931
300.639
300.521
300.437
300.389
300.374
300.362
300.377
300.428
300.523
300.649
300.873
300.706
300.55
300.444
300.364
300.318
300.304
300.21
300.219
300.249
300.299
300.367
300.535
300.452
300.333
300.278
300.233
300.205
300.196
300.174
300.182
300.208
300.246
300.284
300.32
300.19
300.189
300.17
300.146
300.128
300.122
300.069
300.072
300.085
300.104
300.125
300.144
300.138
300.087
300.067
300.052
300.043
300.04
300.029
300.031
300.038
300.051
300.07
300.119
300.105
300.059
300.042
300.03
300.025
300.023
300.042
300.044
300.051
300.062
300.074
300.091
300.072
300.065
300.059
300.054
300.051
300.052
300.054
300.05
300.049
300.05
300.052
300.056
300.042
300.042
300.043
300.046
300.05
300.056
300.06
300.051
300.042
300.037
300.034
300.032
300.024
300.026
300.031
300.04
300.051
300.064
300.068
300.051
300.036
300.026
300.02
300.018
300.014
300.016
300.021
300.032
300.049
300.069
300.067
300.046
300.028
300.017
300.012
300.01
300.007
300.009
300.014
300.024
300.042
300.063
300.052
300.035
300.02
300.012
300.008
300.007
300.005
300.007
300.011
300.019
300.034
300.05
300.04
300.027
300.016
300.009
300.006
300.005
300.005
300.006
300.008
300.014
300.023
300.033
300.027
300.018
300.012
300.008
300.006
300.005
300.006
300.006
300.007
300.01
300.015
300.021
300.017
300.012
300.009
300.007
300.007
300.007
300.008
300.007
300.007
300.008
300.01
300.013
300.011
300.009
300.008
300.007
300.008
300.009
300.009
300.006
300.006
300.007
300.007
300.008
300.006
300.005
300.005
300.005
300.007
300.009
300.01
300.008
300.006
300.005
300.004
300.004
300.003
300.004
300.005
300.008
300.011
300.015
300.033
300.021
300.013
300.008
300.005
300.004
300.008
300.01
300.015
300.027
300.048
300.083
300.196
300.109
300.06
300.033
300.021
300.018
300.044
300.049
300.072
300.122
300.214
300.382
300.6
300.37
300.234
300.16
300.127
300.118
300.232
300.25
300.307
300.405
300.543
300.745
300.856
300.925
301.215
304.474
329.53
423.609
434.971
442.068
445.098
442.898
442.772
362.937
360.435
356.327
347.053
337.345
305.966
308.855
313.437
318.879
322.273
306.946
305.062
302.701
301.551
301.229
300.76
300.693
300.896
301.623
302.241
300.534
300.489
300.461
300.531
300.658
300.662
300.547
300.454
300.45
300.46
301.546
301.381
301.039
301.208
301.071
303.152
304.083
303.623
304.491
304.891
316.457
316.678
316.78
317.034
313.82
354.034
360.893
361.165
354.641
351.892
434.658
438.035
447.772
449.274
445.93
437.178
341.47
307.803
301.539
300.945
300.857
301.405
301.426
301.852
307.017
338.39
433.499
419.359
328.154
304.691
301.651
301.41
301.394
301.369
301.796
301.863
302.33
306.807
334.597
425.379
430.957
338.403
307.701
302.487
301.932
301.868
301.769
301.857
302.306
306.595
334.67
427.362
421.776
329.957
305.613
302.357
302.007
301.891
302.038
302.172
302.619
306.663
333.867
426.289
420.295
328.962
305.111
301.928
301.609
301.513
301.076
301.151
301.428
304.362
327.243
417.986
419.949
426.572
436.698
447.061
453.981
376.168
362.561
345.78
334.252
328.73
304.524
305.837
309.994
318.904
328.091
308.469
304.982
302.171
301.316
301.258
300.933
300.791
300.867
301.556
302.538
300.541
300.516
300.555
300.678
300.85
300.776
300.612
300.477
300.394
300.37
300.288
300.305
300.368
300.48
300.624
300.798
300.621
300.457
300.338
300.256
300.216
300.205
300.147
300.153
300.177
300.231
300.319
300.454
300.316
300.209
300.151
300.119
300.106
300.103
300.071
300.071
300.076
300.09
300.115
300.194
300.347
300.16
300.116
300.094
300.084
300.082
300.073
300.076
300.085
300.109
300.156
300.328
300.298
300.16
300.104
300.077
300.066
300.064
300.098
300.102
300.121
300.166
300.261
300.496
300.342
300.146
300.104
300.082
300.073
300.071
300.105
300.108
300.123
300.158
300.229
300.512
300.669
300.302
300.215
300.166
300.145
300.139
300.136
300.142
300.165
300.22
300.316
300.654
300.804
300.394
300.285
300.221
300.19
300.181
300.241
300.252
300.289
300.362
300.481
300.949
301.091
300.578
300.445
300.361
300.316
300.303
300.366
300.381
300.433
300.53
300.679
301.231
301.371
300.784
300.613
300.501
300.439
300.419
300.418
300.435
300.496
300.609
300.784
301.278
301.427
300.904
300.699
300.565
300.494
300.472
300.435
300.451
300.505
300.602
300.737
301.048
300.984
300.758
300.609
300.497
300.436
300.417
300.359
300.375
300.428
300.52
300.638
300.794
300.606
300.43
300.351
300.291
300.256
300.245
300.233
300.243
300.274
300.326
300.389
300.508
300.35
300.325
300.286
300.243
300.213
300.203
300.144
300.15
300.169
300.193
300.208
300.201
300.153
300.143
300.121
300.099
300.085
300.08
300.05
300.053
300.063
300.08
300.102
300.149
300.13
300.081
300.06
300.045
300.036
300.034
300.027
300.029
300.036
300.048
300.068
300.114
300.098
300.08
300.067
300.057
300.049
300.046
300.057
300.057
300.06
300.065
300.07
300.077
300.059
300.056
300.055
300.054
300.056
300.06
300.064
300.057
300.051
300.047
300.046
300.046
300.035
300.037
300.041
300.048
300.058
300.069
300.076
300.06
300.046
300.035
300.029
300.026
300.019
300.023
300.029
300.042
300.061
300.08
300.082
300.058
300.037
300.024
300.017
300.015
300.011
300.013
300.019
300.032
300.054
300.079
300.075
300.049
300.028
300.015
300.01
300.008
300.006
300.009
300.015
300.027
300.047
300.069
300.058
300.039
300.022
300.012
300.008
300.005
300.004
300.009
300.013
300.022
300.036
300.051
300.044
300.031
300.019
300.011
300.007
300.004
300.004
300.006
300.009
300.016
300.026
300.038
300.031
300.022
300.013
300.008
300.005
300.004
300.004
300.005
300.007
300.011
300.018
300.025
300.02
300.014
300.009
300.006
300.005
300.005
300.005
300.005
300.006
300.008
300.011
300.016
300.012
300.009
300.007
300.006
300.006
300.006
300.008
300.006
300.006
300.007
300.008
300.01
300.008
300.007
300.006
300.005
300.006
300.008
300.008
300.006
300.005
300.004
300.005
300.005
300.003
300.003
300.004
300.006
300.008
300.009
300.015
300.011
300.007
300.005
300.003
300.003
300.004
300.005
300.008
300.013
300.021
300.034
300.093
300.052
300.028
300.016
300.01
300.008
300.018
300.021
300.034
300.064
300.119
300.222
300.422
300.23
300.127
300.073
300.048
300.042
300.113
300.123
300.161
300.241
300.387
300.64
300.767
300.548
300.404
300.302
300.241
300.22
300.198
300.221
300.285
300.392
300.541
300.774
300.869
301.341
303.782
315.515
356.34
446.726
452.338
450.732
442.352
429.258
426.276
341.234
344.725
356.24
366.491
367.752
322.736
321.565
315.947
312.402
311.066
302.988
303.241
303.693
305.874
306.562
301.957
301.659
301.031
301.001
300.953
300.382
300.397
300.433
300.548
300.695
301.452
300.852
300.437
300.349
300.314
300.679
300.819
301.201
303.42
305.905
314.249
309.341
304.022
302.576
302.094
308.705
310.233
315.668
326.387
334.541
379.011
369.421
354.129
340.738
337.644
425.497
428.026
441.966
451.025
455.824
454.814
376.143
332.467
313.359
305.754
301.775
302.437
306.236
313.273
331.039
373.087
452.816
443.543
352.316
313.885
303.743
301.763
301.424
301.975
302.515
305.161
316.928
356.612
445.733
435.936
342.661
309.302
302.61
301.911
301.903
301.852
301.868
302.222
306.104
331.945
422.008
424.821
335.371
307.579
302.91
302.413
302.38
302.273
302.396
303.076
308.626
338.937
428.686
438.169
346.415
310.616
303.446
302.54
302.407
302.246
302.415
303.079
308.506
340.039
432.59
425.237
333.154
306.893
303.088
302.618
302.437
302.714
302.933
303.521
308.214
337.522
429.922
441.502
348.156
311.356
304.227
303.321
303.061
302.242
302.405
303.117
309.255
343.507
437.973
430.489
335.974
306.757
302.213
301.739
301.63
301.15
300.895
300.699
300.553
300.481
300.474
301.884
306.729
323.941
369.166
449.064
443.98
359.569
317.484
304.367
301.296
300.838
302.167
310.357
347.05
437.536
430.732
337.327
306.541
301.399
300.812
300.977
301.361
305.278
332.394
425.954
425.544
331.772
305.318
301.582
301.225
301.324
301.871
307.262
339.911
436.434
439.35
342.856
307.782
301.696
301.051
300.876
301.794
309.26
346.915
440.785
440.952
351.923
312.528
302.562
300.892
301.204
304.143
316.677
356.56
440.705
443.234
361.151
319.995
305.493
301.534
300.476
300.493
300.579
300.743
300.964
301.24
301.07
300.864
300.679
300.518
300.41
300.373
300.368
300.403
300.507
300.663
300.841
301.024
300.819
300.642
300.496
300.38
300.311
300.291
300.236
300.249
300.298
300.387
300.506
300.654
300.505
300.366
300.283
300.221
300.189
300.18
300.171
300.183
300.222
300.288
300.374
300.483
300.331
300.234
300.181
300.146
300.129
300.125
300.115
300.121
300.142
300.181
300.237
300.318
300.494
300.316
300.218
300.161
300.134
300.127
300.173
300.183
300.222
300.308
300.454
300.709
300.558
300.255
300.179
300.14
300.123
300.119
300.108
300.112
300.129
300.171
300.251
300.537
300.737
300.349
300.237
300.178
300.153
300.146
300.137
300.144
300.171
300.236
300.365
300.691
300.868
300.436
300.288
300.213
300.179
300.171
300.209
300.219
300.257
300.335
300.487
301.024
300.812
300.378
300.278
300.221
300.193
300.185
300.241
300.251
300.285
300.351
300.462
300.95
301.081
300.549
300.425
300.35
300.308
300.296
300.348
300.363
300.411
300.497
300.636
301.208
301.329
300.718
300.563
300.464
300.409
300.392
300.432
300.451
300.512
300.623
300.796
301.446
301.504
300.883
300.689
300.561
300.492
300.471
300.519
300.542
300.619
300.763
300.982
301.639
301.576
301.024
300.786
300.632
300.55
300.526
300.489
300.507
300.57
300.683
300.838
301.173
301.108
300.871
300.7
300.569
300.496
300.475
300.41
300.428
300.489
300.596
300.728
300.887
300.682
300.498
300.406
300.336
300.295
300.282
300.267
300.278
300.315
300.376
300.448
300.568
300.383
300.365
300.326
300.279
300.245
300.234
300.163
300.17
300.19
300.213
300.225
300.216
300.164
300.161
300.138
300.114
300.098
300.093
300.059
300.063
300.074
300.094
300.118
300.162
300.142
300.093
300.07
300.053
300.043
300.04
300.031
300.033
300.041
300.055
300.077
300.124
300.104
300.087
300.074
300.062
300.054
300.051
300.063
300.062
300.065
300.07
300.076
300.082
300.064
300.061
300.06
300.06
300.062
300.067
300.073
300.064
300.057
300.052
300.05
300.049
300.038
300.04
300.046
300.055
300.067
300.08
300.089
300.071
300.053
300.04
300.033
300.028
300.021
300.025
300.034
300.049
300.072
300.095
300.097
300.069
300.044
300.027
300.02
300.016
300.012
300.015
300.022
300.037
300.063
300.093
300.087
300.057
300.031
300.017
300.011
300.009
300.006
300.011
300.017
300.03
300.053
300.078
300.061
300.044
300.029
300.018
300.012
300.005
300.005
300.011
300.016
300.026
300.04
300.055
300.037
300.028
300.02
300.014
300.01
300.009
300.007
300.008
300.012
300.018
300.027
300.037
300.036
300.026
300.017
300.01
300.007
300.005
300.004
300.006
300.009
300.015
300.023
300.033
300.029
300.02
300.013
300.008
300.005
300.004
300.004
300.005
300.006
300.01
300.017
300.024
300.019
300.013
300.008
300.005
300.004
300.004
300.004
300.004
300.005
300.007
300.01
300.015
300.011
300.008
300.006
300.005
300.005
300.005
300.007
300.005
300.005
300.006
300.007
300.009
300.007
300.006
300.005
300.005
300.005
300.007
300.007
300.005
300.004
300.004
300.004
300.004
300.003
300.003
300.004
300.005
300.007
300.008
300.014
300.01
300.007
300.004
300.003
300.003
300.004
300.005
300.007
300.012
300.021
300.036
300.103
300.055
300.029
300.016
300.009
300.008
300.017
300.02
300.034
300.066
300.128
300.245
300.454
300.239
300.128
300.071
300.046
300.04
300.102
300.113
300.152
300.235
300.387
300.663
300.668
300.365
300.216
300.135
300.098
300.088
300.171
300.192
300.255
300.38
300.581
300.859
300.814
300.518
300.331
300.217
300.161
300.144
300.168
300.22
300.414
301.212
302.825
304.555
307.125
303.643
301.451
300.471
300.24
300.195
300.341
300.401
300.701
302.282
305.874
317.807
308.101
302.562
301.278
301.251
306.058
305.369
307.711
316.91
330.362
354.091
338.709
327.283
323.021
326.126
378.096
372.567
377.485
386.429
397.575
464.74
461.023
456.977
454.086
457.014
457.539
451.048
447.07
448.404
453.128
368.646
362.066
360.943
367.353
379.115
327.373
320.804
318.209
319.415
323.326
312.214
307.337
305.175
305.142
306.769
301.566
301.384
301.87
304.132
309.245
305.056
301.892
300.752
300.494
300.473
300.337
300.364
300.576
301.361
303.378
310.572
316.206
329.161
333.796
345.174
384.091
458.994
463.27
395.671
360.594
348.678
342.543
323.221
317.914
339.97
357.955
384.215
421.893
473.172
463.192
396.892
354.841
331.087
317.995
306.218
306.675
320.161
333.76
358.185
400.707
465.304
454.89
376.956
334.404
315.583
307.795
303.233
304.125
309.494
318.121
337.963
380.907
456.827
447.777
360.959
320.32
307.095
303.557
302.619
302.452
302.498
303.613
311.407
346.332
438.192
439.212
348.44
313.113
304.69
303.258
303.105
302.973
303.04
303.644
308.641
337.133
426.326
429.601
340.38
309.656
303.837
303.035
302.817
303.07
303.259
304.279
311.695
347.784
439
433.423
341.406
309.568
303.904
303.107
302.823
303.12
303.373
303.957
308.013
334.818
426.534
430.527
338.823
309.443
304.622
303.938
303.613
304.136
304.492
305.476
312.62
349.088
441.523
448.704
358.973
316.522
306.531
305.087
304.772
303.475
303.734
305.171
315.407
358.755
449.242
444.333
351.545
312.014
303.703
302.656
302.511
301.789
301.882
302.537
308.492
342.174
437.008
439.178
345.358
309.527
302.771
302.026
301.977
301.307
300.985
300.743
300.562
300.458
300.43
300.927
303.161
312.567
345.345
429.25
425.263
342.185
310.994
302.608
300.819
300.751
301.99
309.69
342.347
428.233
433.178
342.986
308.558
301.658
300.835
301.053
301.684
307.893
342.519
435.732
437.622
342.529
308.022
301.998
301.382
301.603
303.088
312.527
352.137
444.645
442.432
352.342
313.358
303.234
301.354
300.866
302.024
310.733
347.636
437.738
426.958
339.833
309.002
301.874
300.718
300.673
301.904
308.215
335.005
418.534
420.352
335.822
308.527
302.025
300.68
300.424
300.46
300.579
300.788
301.079
301.457
301.466
301.036
300.759
300.562
300.44
300.399
300.381
300.413
300.517
300.682
300.893
301.21
301.028
300.81
300.631
300.483
300.388
300.358
300.289
300.304
300.363
300.473
300.62
300.833
300.681
300.465
300.364
300.291
300.248
300.235
300.231
300.251
300.309
300.4
300.517
300.664
300.907
300.606
300.43
300.315
300.254
300.236
300.213
300.228
300.281
300.382