/*--------------------------------*- C++ -*----------------------------------*\
| =========                 |                                                 |
| \\      /  F ield         | OpenFOAM: The Open Source CFD Toolbox           |
|  \\    /   O peration     | Version:  2212                                  |
|   \\  /    A nd           | Website:  www.openfoam.com                      |
|    \\/     M anipulation  |                                                 |
\*---------------------------------------------------------------------------*/
FoamFile
{
    version     2.0;
    format      ascii;
    arch        "LSB;label=32;scalar=64";
    class       volScalarField;
    location    "40";
    object      p;
}
// * * * * * * * * * * * * * * * * * * * * * * * * * * * * * * * * * * * * * //

dimensions      [0 2 -2 0 0 0 0];

internalField   nonuniform List<scalar> 
248319
(
0
0.0192797
0.0402692
0.0499112
0.057951
0.0646539
0.0702477
0.109354
0.103289
0.0960154
0.087293
0.0768339
0.0510449
0.0498353
0.0761389
0.0872726
0.096569
0.104327
0.110798
0.0812591
0.076389
0.0706002
0.0636718
0.0553456
0.0330929
0.0137211
0.0280107
0.0342242
0.0395248
0.0440899
0.0480641
0.0626293
0.0577912
0.0519931
0.0450537
0.0367443
0.0196827
-0.0539492
-0.0471891
-0.0434433
-0.0403189
-0.0376977
-0.0355213
-0.0212321
-0.0246999
-0.0288587
-0.0338367
-0.0398022
-0.0507633
-0.0555462
-0.040219
-0.0334765
-0.0278613
-0.0231808
-0.0192641
0.0634662
0.0574267
0.0501782
0.0414872
0.0310658
0.000542854
0.0309078
0.0593127
0.0692855
0.0776
0.0845278
0.090307
0.100135
0.0944885
0.0877135
0.0795866
0.0698431
0.0359016
0.049948
0.0749714
0.0847344
0.0928716
0.0996555
0.10531
0.109527
0.103004
0.0951826
0.0858062
0.074567
0.0473125
0.0190744
0.0397461
0.0463729
0.0518992
0.056582
0.0606309
-0.0356328
-0.0383631
-0.0410932
-0.0438213
-0.0465509
-0.0535727
-0.0515053
-0.0438565
-0.041468
-0.0392273
-0.0370889
-0.035024
-0.140389
-0.140799
-0.141189
-0.141559
-0.141897
-0.145272
-0.144828
-0.141949
-0.140969
-0.140154
-0.139472
-0.138899
-0.132518
-0.133796
-0.135342
-0.13718
-0.139389
-0.144446
-0.145909
-0.13938
-0.136708
-0.134479
-0.132609
-0.131069
-0.133994
-0.135632
-0.13761
-0.13997
-0.142814
-0.150197
-0.0695839
-0.0525821
-0.0457617
-0.0400759
-0.0353427
-0.0313803
0.0473142
0.0406939
0.0327532
0.0232222
0.0117958
-0.0194655
-0.00916085
0.0315405
0.0452764
0.0567294
0.06628
0.0742423
0.0901733
0.0833681
0.0752074
0.0654162
0.0536735
0.0104129
0.00965597
0.0523155
0.0641532
0.0740199
0.0822431
0.0890993
0.0978798
0.0922986
0.0856016
0.0775647
0.0679227
0.0344788
0.0489407
0.0735187
0.0833172
0.0914813
0.0982846
0.103952
0.109474
0.102779
0.0947523
0.0851296
0.0735932
0.0456337
0.0147824
0.0354081
0.0421934
0.0479064
0.0527881
0.0570345
-0.0392406
-0.0419565
-0.0446742
-0.0473923
-0.0501127
-0.0586946
-0.147625
-0.143319
-0.1426
-0.141883
-0.141165
-0.140447
-0.139447
-0.14015
-0.140849
-0.141548
-0.142246
-0.146191
-0.244001
-0.242356
-0.242283
-0.24221
-0.242138
-0.242064
-0.242971
-0.242959
-0.242926
-0.242865
-0.242768
-0.243764
-0.243297
-0.242391
-0.242265
-0.242157
-0.242072
-0.242004
-0.238682
-0.239004
-0.239385
-0.239851
-0.240402
-0.242613
-0.242866
-0.239814
-0.239094
-0.238491
-0.237992
-0.237566
-0.238128
-0.238597
-0.23916
-0.239828
-0.240628
-0.244232
-0.245668
-0.24151
-0.240534
-0.239726
-0.239042
-0.238484
-0.136229
-0.138073
-0.140291
-0.142946
-0.146134
-0.154329
-0.0773996
-0.0596843
-0.0525304
-0.0465648
-0.0415996
-0.0374532
0.0342152
0.027438
0.0193042
0.00954012
-0.00216143
-0.0328476
-0.0252866
0.012631
0.026662
0.0383606
0.0481137
0.0562411
0.0568224
0.0485547
0.0386317
0.026728
0.0124474
-0.0247326
-0.00913056
0.0306885
0.0447098
0.0563961
0.0661384
0.0742594
0.0739327
0.0657309
0.0558898
0.044084
0.0299147
-0.00975628
0.00872576
0.051413
0.0634126
0.0734099
0.0817424
0.0886872
0.0975767
0.0919172
0.085128
0.0769794
0.067203
0.0335547
0.0480703
0.0729838
0.0829122
0.0911853
0.0980806
0.103824
0.109424
0.102618
0.0944558
0.0846703
0.0729377
0.0445322
0.0132887
0.0339964
0.0409692
0.0468559
0.0518961
0.056283
-0.0407196
-0.0434427
-0.0461652
-0.0488879
-0.0516119
-0.060397
-0.148682
-0.144128
-0.143452
-0.142776
-0.142102
-0.141427
-0.242706
-0.242781
-0.242857
-0.242935
-0.243011
-0.245099
-0.244485
-0.242463
-0.242391
-0.242319
-0.242247
-0.242174
-0.343415
-0.343412
-0.34341
-0.343409
-0.343405
-0.344184
-0.343954
-0.343391
-0.343413
-0.343434
-0.343456
-0.343477
-0.344214
-0.344162
-0.344097
-0.34402
-0.343924
-0.344012
-0.343682
-0.343587
-0.34364
-0.34369
-0.34373
-0.343764
-0.341958
-0.342005
-0.342057
-0.342125
-0.342207
-0.343032
-0.342984
-0.341728
-0.3416
-0.341487
-0.341399
-0.341332
-0.341476
-0.341558
-0.341668
-0.341802
-0.341953
-0.343477
-0.343959
-0.342143
-0.341956
-0.341791
-0.34166
-0.341548
-0.340764
-0.340958
-0.341174
-0.341444
-0.341764
-0.344012
-0.246061
-0.241095
-0.239718
-0.238572
-0.23761
-0.236824
-0.134521
-0.136838
-0.139626
-0.142966
-0.146968
-0.156226
-0.081838
-0.0633165
-0.0553505
-0.0487067
-0.0431847
-0.0385624
0.0239714
0.0174926
0.0097158
0.000384412
-0.0108003
-0.0405091
-0.0341793
0.00127468
0.0135897
0.0238583
0.0324184
0.0395517
0.040563
0.0333916
0.0247865
0.0144625
0.00207811
-0.0330961
-0.0329108
0.00219175
0.0145633
0.0248748
0.0334699
0.040631
0.0567249
0.0484213
0.0384569
0.0265042
0.0121616
-0.0248745
-0.0250422
0.0120499
0.026393
0.0383448
0.0483055
0.0566049
0.0737388
0.0655257
0.0556696
0.0438402
0.0296484
-0.0101043
0.00827899
0.0511192
0.0631556
0.0731808
0.0815396
0.0885027
0.0974532
0.0917744
0.0849629
0.0767871
0.066973
0.0331474
0.0476856
0.0727815
0.0827518
0.0910581
0.0979809
0.103748
0.109381
0.102529
0.0943116
0.0844594
0.0726483
0.0440629
0.0127337
0.0335576
0.0405991
0.0465452
0.0516375
0.0560659
-0.0412023
-0.0439212
-0.0466392
-0.049358
-0.0520781
-0.0610045
-0.149287
-0.144725
-0.144046
-0.143365
-0.142685
-0.142006
-0.243162
-0.243238
-0.243315
-0.243392
-0.243468
-0.245546
-0.344826
-0.344002
-0.344002
-0.344002
-0.344002
-0.344002
-0.343688
-0.343688
-0.343688
-0.343688
-0.343689
-0.344523
-0.444291
-0.443965
-0.443965
-0.443965
-0.443965
-0.443965
-0.443813
-0.443811
-0.44381
-0.443809
-0.443807
-0.444091
-0.444004
-0.44385
-0.443865
-0.443879
-0.443894
-0.443907
-0.444466
-0.444436
-0.444397
-0.44435
-0.444295
-0.444146
-0.444
-0.444135
-0.444193
-0.444246
-0.44429
-0.444323
-0.443403
-0.443403
-0.443397
-0.443391
-0.443386
-0.443642
-0.443716
-0.443271
-0.443268
-0.443253
-0.44325
-0.443234
-0.443596
-0.443618
-0.443614
-0.443636
-0.443652
-0.444161
-0.444735
-0.444196
-0.444162
-0.444146
-0.444136
-0.444114
-0.444416
-0.444441
-0.444477
-0.444512
-0.444567
-0.445188
-0.445402
-0.444584
-0.444469
-0.444367
-0.444292
-0.444228
-0.338897
-0.339264
-0.339684
-0.340199
-0.340812
-0.3437
-0.245856
-0.23967
-0.237489
-0.235671
-0.234144
-0.232885
-0.124322
-0.127574
-0.131488
-0.136183
-0.141819
-0.154711
-0.0825133
-0.0606367
-0.0513616
-0.0436263
-0.0371946
-0.0318086
0.0161667
0.00996342
0.00252171
-0.00640679
-0.017116
-0.0446064
-0.0407147
-0.0115203
-0.00121248
0.00738361
0.0145453
0.0205186
0.0212563
0.0153361
0.00823512
-0.000287678
-0.0105097
-0.0395503
-0.0393238
-0.0103401
-0.000140488
0.00836159
0.0154454
0.0213519
0.0213281
0.0154246
0.00834893
-0.000146179
-0.0103438
-0.0393561
-0.0329628
0.00218365
0.0145449
0.0248474
0.0334301
0.0405827
0.0405347
0.0333829
0.024803
0.0145026
0.00214245
-0.0330564
-0.0251719
0.0119792
0.0263208
0.0382721
0.0482303
0.0565276
0.0736426
0.065427
0.0555682
0.0437358
0.0295409
-0.0102839
0.0080862
0.0510147
0.0630559
0.0730879
0.0814517
0.0884196
0.0974002
0.0917187
0.0849011
0.07672
0.0669015
0.0329992
0.0475542
0.0727202
0.0827005
0.0910155
0.0979458
0.103719
0.10937
0.102502
0.0942657
0.0843899
0.0725516
0.0439193
0.0125775
0.0335075
0.040589
0.0465691
0.0516872
0.0561329
-0.0413571
-0.0440855
-0.046813
-0.0495404
-0.0522689
-0.0612219
-0.149545
-0.144991
-0.144309
-0.143628
-0.142946
-0.142262
-0.24343
-0.243507
-0.243584
-0.24366
-0.243737
-0.245795
-0.34504
-0.344237
-0.344237
-0.344237
-0.344237
-0.344237
-0.444395
-0.444395
-0.444395
-0.444395
-0.444395
-0.444697
-0.444509
-0.444189
-0.444189
-0.444189
-0.444189
-0.444189
-0.543751
-0.543751
-0.543751
-0.543751
-0.543751
-0.543887
-0.543701
-0.543561
-0.543561
-0.543561
-0.543561
-0.543561
-0.54345
-0.54345
-0.54345
-0.543449
-0.543448
-0.543568
-0.543537
-0.543492
-0.5435
-0.543507
-0.543514
-0.543521
-0.543905
-0.543889
-0.54387
-0.543846
-0.543817
-0.543683
-0.543687
-0.543827
-0.543866
-0.543891
-0.54391
-0.543941
-0.543617
-0.543601
-0.54361
-0.543597
-0.543589
-0.543632
-0.543943
-0.543853
-0.543847
-0.543864
-0.543844
-0.543853
-0.544596
-0.544587
-0.544607
-0.544596
-0.544601
-0.544634
-0.545641
-0.545722
-0.545722
-0.545725
-0.545715
-0.545719
-0.547068
-0.547072
-0.547077
-0.547078
-0.547084
-0.54686
-0.548136
-0.548479
-0.548454
-0.548449
-0.548429
-0.548419
-0.549322
-0.549345
-0.549385
-0.549419
-0.549467
-0.549097
-0.445348
-0.444154
-0.443882
-0.443657
-0.443472
-0.443315
-0.336087
-0.336745
-0.337516
-0.33845
-0.339575
-0.343329
-0.246677
-0.238983
-0.23567
-0.232903
-0.230588
-0.228667
-0.121771
-0.125811
-0.130676
-0.136513
-0.143516
-0.159731
-0.109597
-0.0815223
-0.0712065
-0.0626013
-0.0554295
-0.0494473
-0.0145113
-0.0204332
-0.0275261
-0.0360426
-0.046255
-0.0736495
-0.0681774
-0.0358268
-0.025776
-0.0173986
-0.0104105
-0.00458215
-0.00460237
-0.0104208
-0.0173947
-0.0257619
-0.035807
-0.0676332
-0.067547
-0.0358233
-0.0257778
-0.0174073
-0.0104318
-0.00461706
-0.00466311
-0.010476
-0.0174537
-0.0258208
-0.0358645
-0.0676138
-0.0677039
-0.0359205
-0.0258712
-0.0174985
-0.010521
-0.00470522
0.021291
0.0153875
0.00830958
-0.000187712
-0.0103875
-0.0394337
-0.0394961
-0.0104274
-0.000226559
0.00827492
0.0153578
0.021261
0.0405056
0.0333513
0.0247673
0.0144662
0.00210459
-0.0331234
-0.0252445
0.0119407
0.0262808
0.0382312
0.04819
0.0564893
0.0735983
0.0653827
0.0555242
0.043694
0.0295004
-0.0103622
0.00801833
0.0509801
0.0630202
0.0730538
0.0814178
0.0883854
0.0973821
0.0916994
0.0848806
0.0766999
0.0668856
0.032962
0.0475253
0.0727075
0.0826874
0.0910033
0.0979338
0.103709
0.109363
0.102493
0.0942539
0.0843743
0.0725336
0.0438905
0.012546
0.0335003
0.0405859
0.0465681
0.0516892
0.0561362
-0.0413852
-0.0441163
-0.0468447
-0.0495728
-0.0523031
-0.0612626
-0.149625
-0.14508
-0.144398
-0.143715
-0.143034
-0.142351
-0.243555
-0.243633
-0.243709
-0.243786
-0.243863
-0.245904
-0.345167
-0.344379
-0.344379
-0.344379
-0.344379
-0.344379
-0.444561
-0.444561
-0.444561
-0.444561
-0.444561
-0.444848
-0.544304
-0.5442
-0.5442
-0.5442
-0.5442
-0.5442
-0.54397
-0.54397
-0.54397
-0.54397
-0.54397
-0.544089
-0.643195
-0.643156
-0.643156
-0.643156
-0.643156
-0.643156
-0.642858
-0.642858
-0.642858
-0.642858
-0.642858
-0.642916
-0.64271
-0.642642
-0.642642
-0.642642
-0.642642
-0.642642
-0.642524
-0.642524
-0.642524
-0.642524
-0.642524
-0.642587
-0.642566
-0.64254
-0.642543
-0.642545
-0.642547
-0.64255
-0.642794
-0.642786
-0.64278
-0.642772
-0.642759
-0.642684
-0.642782
-0.642877
-0.642885
-0.642897
-0.642917
-0.642916
-0.642974
-0.642983
-0.642972
-0.642973
-0.642971
-0.642942
-0.643456
-0.64351
-0.643516
-0.643512
-0.643512
-0.643512
-0.644588
-0.644593
-0.644584
-0.644595
-0.644585
-0.644408
-0.645857
-0.646244
-0.646248
-0.646237
-0.646246
-0.646242
-0.648477
-0.648479
-0.648484
-0.648487
-0.648483
-0.647829
-0.650216
-0.651167
-0.651172
-0.651168
-0.65116
-0.651164
-0.653667
-0.653667
-0.653675
-0.65368
-0.653682
-0.652521
-0.653229
-0.654547
-0.654522
-0.654514
-0.654492
-0.654489
-0.548964
-0.549036
-0.549116
-0.549208
-0.549321
-0.549089
-0.445068
-0.443231
-0.442662
-0.442186
-0.44179
-0.441466
-0.332424
-0.333577
-0.334928
-0.336565
-0.338531
-0.34359
-0.247312
-0.235392
-0.230352
-0.226149
-0.22263
-0.219724
-0.125708
-0.130366
-0.135951
-0.142653
-0.15069
-0.170156
-0.126782
-0.0995951
-0.0890895
-0.0803302
-0.0730282
-0.0669425
-0.0553631
-0.0619305
-0.0698192
-0.0792765
-0.0906245
-0.121108
-0.102544
-0.066492
-0.0549503
-0.045326
-0.0373051
-0.0306156
-0.0307633
-0.0374158
-0.0453985
-0.0549746
-0.066464
-0.101798
-0.101683
-0.0665652
-0.0550756
-0.0454974
-0.0375141
-0.0308624
-0.0309378
-0.0375904
-0.045575
-0.0551529
-0.0666464
-0.101735
-0.101825
-0.0667081
-0.0552098
-0.0456315
-0.0376442
-0.0309892
-0.0310231
-0.0376779
-0.0456675
-0.0552507
-0.0667539
-0.101895
-0.0677706
-0.0359638
-0.0259096
-0.017532
-0.0105522
-0.00473337
-0.00474852
-0.0105707
-0.0175526
-0.0259355
-0.0359895
-0.0678132
-0.0395344
-0.0104512
-0.000248137
0.00825134
0.015339
0.0212415
0.0404892
0.0333329
0.0247477
0.0144449
0.00208074
-0.0331638
-0.025281
0.0119208
0.0262625
0.0382136
0.0481742
0.0564715
0.0735832
0.0653681
0.0555098
0.0436797
0.0294866
-0.0103899
0.00800342
0.0509732
0.0630113
0.0730445
0.0814082
0.0883736
0.0973777
0.0916948
0.0848786
0.0766995
0.0668845
0.0329627
0.047529
0.0727061
0.0826868
0.0910034
0.0979322
0.103707
0.109363
0.102493
0.0942535
0.0843737
0.0725324
0.0439024
0.0125689
0.0335345
0.0406261
0.0466119
0.0517343
0.0561831
-0.0413706
-0.0440997
-0.0468276
-0.049558
-0.0522888
-0.0612477
-0.149633
-0.145096
-0.144414
-0.14373
-0.143047
-0.142365
-0.243602
-0.243678
-0.243755
-0.243833
-0.243909
-0.245941
-0.34524
-0.344461
-0.344461
-0.344461
-0.344461
-0.344461
-0.4447
-0.4447
-0.4447
-0.4447
-0.4447
-0.444977
-0.544538
-0.544451
-0.544451
-0.544451
-0.544451
-0.544451
-0.644033
-0.644033
-0.644033
-0.644033
-0.644033
-0.644006
-0.643558
-0.643548
-0.643548
-0.643548
-0.643548
-0.643548
-0.74288
-0.74288
-0.74288
-0.74288
-0.74288
-0.742805
-0.742159
-0.74218
-0.74218
-0.74218
-0.74218
-0.74218
-0.741694
-0.741694
-0.741694
-0.741694
-0.741694
-0.741709
-0.741421
-0.741387
-0.741387
-0.741387
-0.741387
-0.741387
-0.741223
-0.741223
-0.741223
-0.741223
-0.741223
-0.741263
-0.74122
-0.741191
-0.741192
-0.741191
-0.741193
-0.741194
-0.74131
-0.74131
-0.741309
-0.74131
-0.741309
-0.741293
-0.741426
-0.741466
-0.741467
-0.741469
-0.741471
-0.741472
-0.741763
-0.741763
-0.741762
-0.741761
-0.741761
-0.74171
-0.742336
-0.742459
-0.742456
-0.742451
-0.742461
-0.742456
-0.743717
-0.743711
-0.743711
-0.743708
-0.743717
-0.743439
-0.745154
-0.745671
-0.745664
-0.745676
-0.745668
-0.745674
-0.748457
-0.748456
-0.748459
-0.748451
-0.748454
-0.7476
-0.750741
-0.752026
-0.752023
-0.752024
-0.752025
-0.752026
-0.75583
-0.755844
-0.755827
-0.755839
-0.755836
-0.754151
-0.75701
-0.758306
-0.758307
-0.758293
-0.758308
-0.758293
-0.752354
-0.752359
-0.752358
-0.752374
-0.752375
-0.750915
-0.650131
-0.651444
-0.651388
-0.651354
-0.651311
-0.651293
-0.546539
-0.546713
-0.546891
-0.54711
-0.547383
-0.547574
-0.444606
-0.441807
-0.440732
-0.439835
-0.439084
-0.438471
-0.328996
-0.330804
-0.332961
-0.335561
-0.338671
-0.345488
-0.255376
-0.239732
-0.23322
-0.227791
-0.22326
-0.21949
-0.140957
-0.146839
-0.153882
-0.162343
-0.17248
-0.201286
-0.161032
-0.133952
-0.12386
-0.115442
-0.108422
-0.102563
-0.0845287
-0.0909573
-0.0986657
-0.107912
-0.118998
-0.153278
-0.152029
-0.118422
-0.107526
-0.0984405
-0.0908692
-0.0845569
-0.0557034
-0.0621194
-0.0698263
-0.079069
-0.0901584
-0.119903
-0.11972
-0.0901955
-0.0791341
-0.0699148
-0.0622322
-0.055831
-0.0559256
-0.0623253
-0.0700036
-0.0792202
-0.0902767
-0.119781
-0.119869
-0.0903471
-0.0792874
-0.0700685
-0.0623856
-0.0559862
-0.0560224
-0.0624238
-0.0701095
-0.0793333
-0.0903979
-0.119939
-0.119982
-0.0904272
-0.0793616
-0.0701336
-0.0624477
-0.056041
-0.0310422
-0.0376967
-0.0456887
-0.0552745
-0.0667824
-0.101941
-0.101968
-0.0667959
-0.0552878
-0.045702
-0.0377101
-0.0310501
-0.00476124
-0.0105792
-0.0175641
-0.025947
-0.0360032
-0.0678395
-0.0395564
-0.010464
-0.000259029
0.00824266
0.015328
0.0212336
0.0404809
0.0333259
0.0247375
0.014434
0.00206873
-0.0331868
-0.0252997
0.0119126
0.0262552
0.0382055
0.0481667
0.0564659
0.0735807
0.0653654
0.0555054
0.0436794
0.0294852
-0.0103985
0.00800441
0.050976
0.0630138
0.0730443
0.0814062
0.0883734
0.0973778
0.0916968
0.0848826
0.0767045
0.0668898
0.032972
0.0475363
0.0727095
0.0826904
0.0910056
0.0979349
0.103708
0.109363
0.102492
0.0942543
0.0843759
0.0725348
0.0439094
0.0125821
0.0335434
0.0406338
0.0466206
0.0517401
0.0561868
-0.0413475
-0.0440763
-0.0468051
-0.0495354
-0.0522674
-0.0612234
-0.14962
-0.145084
-0.144403
-0.143719
-0.143034
-0.142353
-0.243616
-0.243692
-0.24377
-0.243849
-0.243925
-0.245953
-0.345289
-0.344515
-0.344515
-0.344515
-0.344515
-0.344515
-0.444821
-0.444821
-0.444821
-0.444821
-0.444821
-0.44509
-0.544781
-0.544717
-0.544717
-0.544717
-0.544717
-0.544717
-0.644589
-0.644589
-0.644589
-0.644589
-0.644589
-0.644511
-0.744674
-0.744939
-0.744939
-0.744939
-0.744939
-0.744939
-0.743818
-0.743818
-0.743818
-0.743818
-0.743818
-0.743661
-0.843835
-0.84419
-0.84419
-0.84419
-0.84419
-0.84419
-0.842448
-0.842448
-0.842448
-0.842448
-0.842448
-0.84226
-0.841131
-0.841213
-0.841213
-0.841213
-0.841213
-0.841213
-0.840416
-0.840416
-0.840416
-0.840416
-0.840416
-0.840395
-0.839956
-0.839945
-0.839945
-0.839945
-0.839945
-0.839945
-0.839696
-0.839696
-0.839696
-0.839697
-0.839697
-0.839722
-0.839636
-0.839603
-0.839603
-0.839602
-0.839601
-0.8396
-0.839624
-0.839628
-0.839632
-0.839636
-0.839642
-0.839659
-0.839789
-0.839792
-0.83979
-0.839783
-0.83978
-0.839777
-0.840151
-0.840157
-0.840148
-0.840152
-0.840154
-0.840105
-0.840731
-0.840865
-0.840858
-0.840862
-0.840867
-0.840862
-0.842098
-0.842098
-0.842107
-0.842095
-0.842101
-0.841815
-0.843522
-0.844046
-0.844046
-0.844047
-0.844048
-0.844043
-0.846889
-0.846903
-0.846888
-0.846895
-0.846897
-0.846012
-0.849277
-0.850682
-0.850673
-0.850675
-0.850684
-0.850677
-0.854991
-0.85498
-0.854986
-0.854976
-0.854987
-0.852838
-0.856022
-0.858659
-0.858656
-0.858655
-0.858654
-0.858657
-0.859244
-0.859248
-0.859244
-0.859248
-0.859244
-0.858016
-0.901199
-0.90161
-0.901599
-0.901589
-0.901579
-0.901572
-0.925077
-0.93376
-0.940997
-0.947032
-0.95206
-0.952058
-0.947031
-0.941001
-0.933768
-0.92509
-0.925101
-0.933778
-0.941012
-0.947036
-0.952051
-0.952053
-0.947031
-0.941011
-0.933784
-0.925119
-0.925134
-0.933795
-0.94102
-0.947026
-0.952044
-0.952194
-0.94703
-0.940839
-0.933406
-0.924486
-0.925696
-0.934398
-0.941654
-0.947693
-0.95273
-0.909918
-0.903484
-0.895763
-0.886497
-0.875375
-0.848789
-0.805064
-0.838028
-0.851595
-0.862901
-0.872322
-0.88017
-0.880018
-0.872004
-0.86238
-0.850834
-0.836977
-0.837524
-0.851195
-0.862585
-0.872078
-0.879986
-0.88
-0.87209
-0.862593
-0.851197
-0.83752
-0.83752
-0.851203
-0.862599
-0.872097
-0.880012
-0.88003
-0.872109
-0.862606
-0.851201
-0.837519
-0.837517
-0.851202
-0.862609
-0.872114
-0.880033
-0.8653
-0.85681
-0.846622
-0.834395
-0.819721
-0.819723
-0.834392
-0.846617
-0.856805
-0.865292
-0.865284
-0.856797
-0.846611
-0.834389
-0.819724
-0.81972
-0.834385
-0.846604
-0.856785
-0.86527
-0.865255
-0.856775
-0.846595
-0.834379
-0.81972
-0.818237
-0.833329
-0.845905
-0.856382
-0.86511
-0.865063
-0.85623
-0.845629
-0.832904
-0.817634
-0.782404
-0.78234
-0.782411
-0.782397
-0.782378
-0.782359
-0.782355
-0.718833
-0.71889
-0.718936
-0.719005
-0.719083
-0.717989
-0.636453
-0.636854
-0.636478
-0.636179
-0.635909
-0.635702
-0.536316
-0.537029
-0.537859
-0.538883
-0.540091
-0.54243
-0.446162
-0.439736
-0.436577
-0.433951
-0.431746
-0.42992
-0.321616
-0.325323
-0.329755
-0.335084
-0.341467
-0.356622
-0.302158
-0.273987
-0.264384
-0.256384
-0.249708
-0.244147
-0.204075
-0.209655
-0.216365
-0.224407
-0.234043
-0.260244
-0.222134
-0.195118
-0.185132
-0.176803
-0.169863
-0.164075
-0.15027
-0.156532
-0.164039
-0.173045
-0.18385
-0.214789
-0.191917
-0.153458
-0.141737
-0.131965
-0.123818
-0.117028
-0.116781
-0.123469
-0.131485
-0.141106
-0.15265
-0.190286
-0.189912
-0.152597
-0.141088
-0.131495
-0.123506
-0.11684
-0.084676
-0.0909743
-0.0985354
-0.107609
-0.11849
-0.151845
-0.15189
-0.118571
-0.107693
-0.0986274
-0.0910715
-0.0847799
-0.0848451
-0.0911399
-0.0986983
-0.107767
-0.118653
-0.151985
-0.152059
-0.118706
-0.107816
-0.0987442
-0.0911834
-0.0848865
-0.0849066
-0.0912062
-0.0987726
-0.107844
-0.118739
-0.152107
-0.152137
-0.118758
-0.107862
-0.0987887
-0.0912202
-0.0849171
-0.0560521
-0.0624614
-0.0701496
-0.0793776
-0.0904451
-0.120009
-0.120024
-0.0904552
-0.0793842
-0.0701575
-0.062467
-0.0560578
-0.0310562
-0.0377161
-0.045708
-0.0552983
-0.0668045
-0.101982
-0.0678503
-0.0360109
-0.0259523
-0.017572
-0.0105845
-0.00476662
0.021228
0.0153223
0.00823701
-0.000266749
-0.0104702
-0.0395671
-0.0331981
0.00206299
0.0144282
0.0247317
0.0333221
0.0404778
0.0564675
0.0481642
0.0382033
0.0262547
0.0119121
-0.0253063
-0.0103979
0.0294904
0.0436845
0.0555098
0.0653658
0.073581
0.088373
0.0814083
0.073049
0.0630186
0.0509815
0.00801036
0.0329807
0.0668963
0.0767074
0.0848848
0.0916999
0.0973778
0.10371
0.0979352
0.0910049
0.0826919
0.0727147
0.0475441
0.0439191
0.07254
0.0843789
0.0942547
0.102492
0.109362
0.0561987
0.0517525
0.0466323
0.0406461
0.0335565
0.0125973
-0.0612038
-0.0522499
-0.0495189
-0.04679
-0.0440588
-0.041329
-0.14234
-0.143023
-0.143705
-0.144388
-0.145071
-0.149606
-0.245956
-0.243929
-0.243852
-0.243774
-0.243697
-0.24362
-0.344553
-0.344553
-0.344553
-0.344553
-0.344553
-0.345323
-0.445191
-0.444931
-0.44493
-0.444931
-0.444931
-0.444931
-0.544974
-0.544974
-0.544974
-0.544974
-0.544974
-0.545016
-0.645018
-0.645148
-0.645148
-0.645148
-0.645148
-0.645148
-0.746108
-0.746109
-0.746108
-0.746108
-0.746108
-0.745719
-0.847846
-0.848718
-0.848718
-0.848718
-0.848718
-0.848718
-0.846373
-0.846373
-0.846373
-0.846373
-0.846373
-0.84578
-0.948318
-0.949496
-0.949496
-0.949496
-0.949496
-0.949496
-0.945465
-0.945465
-0.945465
-0.945465
-0.945465
-0.944783
-0.942057
-0.942411
-0.942411
-0.942411
-0.942411
-0.942411
-0.940367
-0.940367
-0.940367
-0.940367
-0.940367
-0.940205
-0.939056
-0.939115
-0.939115
-0.939115
-0.939115
-0.939115
-0.938408
-0.938408
-0.938408
-0.938408
-0.938408
-0.938399
-0.938059
-0.938044
-0.938043
-0.938043
-0.938043
-0.938043
-0.937875
-0.937879
-0.93788
-0.93788
-0.937882
-0.937911
-0.937883
-0.937851
-0.937845
-0.937839
-0.937833
-0.937828
-0.937938
-0.937942
-0.937947
-0.937953
-0.937965
-0.937977
-0.938254
-0.938289
-0.938284
-0.938284
-0.938284
-0.938283
-0.938879
-0.938879
-0.938879
-0.938883
-0.938879
-0.938775
-0.939671
-0.939898
-0.939908
-0.939897
-0.939906
-0.939901
-0.941527
-0.941521
-0.941521
-0.941524
-0.941524
-0.941097
-0.943211
-0.943941
-0.943942
-0.943943
-0.94393
-0.943947
-0.947225
-0.947221
-0.94723
-0.947231
-0.947221
-0.946002
-0.949074
-0.951226
-0.951232
-0.951235
-0.951225
-0.951228
-0.955655
-0.955641
-0.955655
-0.95565
-0.955648
-0.951599
-0.967683
-0.985595
-0.991733
-0.996847
-1.00111
-1.00466
-1.0041
-1.0041
-1.0041
-1.0041
-1.0041
-1.0006
-1.0006
-1.0006
-1.0006
-1.00061
-0.996418
-0.996413
-0.996404
-0.996398
-0.996389
-0.991338
-0.991351
-0.991362
-0.991382
-0.991399
-0.985362
-0.985333
-0.985311
-0.985297
-0.985275
-0.969891
-0.969893
-0.969913
-0.969925
-0.96994
-1.05308
-1.05305
-1.05304
-1.05303
-1.05302
-1.05702
-1.05703
-1.05706
-1.05708
-1.05711
-1.05955
-1.05953
-1.05952
-1.0595
-1.05949
-1.06155
-1.06155
-1.06157
-1.06158
-1.06159
-1.06329
-1.06328
-1.06327
-1.06327
-1.06327
-1.0647
-1.0647
-1.06469
-1.0647
-1.0647
-1.06515
-1.0637
-1.06194
-1.05983
-1.0573
-1.05275
-1.05249
-1.05788
-1.06045
-1.0626
-1.06438
-1.06586
-1.00574
-1.00227
-0.998093
-0.993083
-0.987066
-0.965377
-0.902004
-0.904912
-0.929482
-0.937239
-0.943705
-0.94909
-0.953572
-0.910388
-0.90462
-0.897698
-0.889395
-0.87943
-0.85144
-0.807343
-0.841164
-0.853828
-0.864383
-0.873173
-0.880502
-0.865275
-0.856759
-0.846538
-0.834274
-0.819552
-0.784413
-0.783327
-0.81859
-0.833629
-0.846159
-0.8566
-0.865296
-0.865128
-0.856114
-0.845295
-0.832307
-0.81672
-0.781275
-0.780836
-0.81716
-0.832629
-0.845519
-0.856255
-0.865202
-0.865345
-0.865357
-0.865368
-0.865373
-0.865379
-0.85663
-0.856625
-0.856621
-0.856616
-0.856607
-0.846121
-0.846124
-0.846126
-0.846126
-0.846127
-0.833522
-0.833524
-0.83353
-0.833533
-0.833535
-0.818434
-0.818423
-0.818415
-0.818404
-0.818397
-0.780361
-0.780391
-0.780427
-0.78048
-0.780532
-0.716456
-0.716185
-0.715956
-0.715769
-0.715606
-0.630727
-0.631256
-0.631898
-0.632648
-0.633568
-0.634423
-0.541651
-0.537041
-0.534653
-0.532656
-0.531009
-0.529611
-0.420801
-0.42373
-0.427265
-0.431508
-0.436584
-0.447953
-0.370541
-0.352046
-0.344547
-0.338302
-0.333089
-0.328739
-0.270591
-0.275932
-0.282342
-0.29003
-0.299254
-0.325122
-0.317661
-0.287999
-0.278398
-0.270392
-0.26372
-0.258159
-0.220274
-0.22655
-0.234082
-0.243117
-0.253952
-0.292169
-0.251772
-0.218287
-0.207725
-0.198915
-0.191568
-0.185445
-0.184869
-0.190845
-0.19801
-0.206608
-0.216918
-0.249829
-0.212896
-0.182756
-0.17226
-0.163516
-0.156221
-0.150145
-0.150115
-0.15616
-0.163409
-0.172102
-0.182539
-0.2124
-0.212338
-0.182541
-0.17212
-0.163437
-0.156202
-0.150165
-0.116925
-0.12358
-0.131566
-0.141148
-0.152649
-0.189887
-0.189962
-0.152716
-0.141214
-0.13163
-0.123645
-0.116986
-0.117026
-0.123689
-0.131675
-0.141265
-0.152767
-0.190032
-0.190083
-0.1528
-0.141296
-0.131704
-0.123712
-0.117053
-0.117065
-0.123725
-0.131721
-0.141312
-0.152821
-0.190113
-0.19013
-0.152832
-0.14132
-0.131727
-0.123731
-0.117071
-0.0849225
-0.0912258
-0.0987939
-0.107873
-0.118766
-0.152152
-0.152162
-0.118771
-0.107876
-0.0987939
-0.0912283
-0.0849232
-0.0560581
-0.0624675
-0.0701602
-0.0793875
-0.0904605
-0.120032
-0.10199
-0.0668095
-0.0553031
-0.0457105
-0.037716
-0.0310593
-0.00476592
-0.0105909
-0.0175747
-0.0259577
-0.0360164
-0.067858
-0.0395733
-0.0104737
-0.000269497
0.00823211
0.0153222
0.0212246
0.0404778
0.0333202
0.0247311
0.0144281
0.00206135
-0.0332026
-0.025307
0.0119129
0.0262562
0.0382057
0.0481647
0.0564695
0.0735815
0.0653682
0.0555149
0.0436877
0.0294949
-0.0103959
0.00801398
0.0509866
0.0630219
0.0730535
0.0814107
0.088375
0.0973785
0.0917015
0.0848855
0.0767091
0.0668995
0.0329873
0.0475514
0.0727167
0.0826928
0.0910071
0.0979358
0.103709
0.109362
0.102493
0.0942566
0.0843807
0.0725419
0.0439245
0.012604
0.0335578
0.0406474
0.0466333
0.051753
0.0562
-0.0413202
-0.0440487
-0.0467789
-0.0495091
-0.0522387
-0.0611904
-0.149598
-0.145063
-0.144379
-0.143696
-0.143014
-0.14233
-0.243623
-0.2437
-0.243776
-0.243854
-0.243932
-0.245959
-0.345351
-0.344584
-0.344583
-0.344583
-0.344584
-0.344584
-0.445021
-0.445021
-0.445021
-0.445021
-0.445021
-0.445273
-0.545209
-0.545186
-0.545186
-0.545186
-0.545186
-0.545186
-0.645621
-0.645621
-0.645621
-0.645621
-0.645621
-0.645445
-0.746615
-0.747116
-0.747116
-0.747116
-0.747116
-0.747116
-0.850785
-0.850785
-0.850785
-0.850785
-0.850785
-0.849646
-0.956296
-0.957471
-0.957494
-0.957518
-0.957542
-0.957567
-0.953892
-0.953892
-0.953892
-0.953892
-0.953892
-0.952392
-1.06158
-1.06194
-1.062
-1.06207
-1.06213
-1.0622
-1.05447
-1.05447
-1.05447
-1.05447
-1.05447
-1.05327
-1.04648
-1.04764
-1.04764
-1.04764
-1.04764
-1.04764
-1.04272
-1.04272
-1.04272
-1.04272
-1.04272
-1.04214
-1.03935
-1.03962
-1.03962
-1.03962
-1.03962
-1.03962
-1.0378
-1.0378
-1.0378
-1.0378
-1.0378
-1.0377
-1.03679
-1.03682
-1.03682
-1.03682
-1.03682
-1.03682
-1.03632
-1.03632
-1.03632
-1.03632
-1.03632
-1.03633
-1.03611
-1.03609
-1.03609
-1.03609
-1.03609
-1.03608
-1.03598
-1.03599
-1.03599
-1.036
-1.036
-1.03603
-1.03607
-1.03605
-1.03604
-1.03603
-1.03603
-1.03603
-1.03626
-1.03626
-1.03626
-1.03627
-1.03626
-1.03625
-1.03658
-1.03664
-1.03665
-1.03665
-1.03664
-1.03664
-1.03731
-1.03731
-1.03732
-1.03731
-1.03731
-1.03717
-1.03813
-1.03838
-1.03838
-1.03838
-1.03838
-1.03838
-1.03999
-1.04
-1.03999
-1.03999
-1.03999
-1.03957
-1.04152
-1.0422
-1.0422
-1.0422
-1.0422
-1.0422
-1.04498
-1.04498
-1.04497
-1.04498
-1.04498
-1.04384
-1.04722
-1.04851
-1.04851
-1.04851
-1.04852
-1.04851
-1.13705
-1.13704
-1.13705
-1.13705
-1.13705
-1.13809
-1.13574
-1.1333
-1.1322
-1.13128
-1.13052
-1.12988
-1.12958
-1.12957
-1.12958
-1.12957
-1.12958
-1.13018
-1.13018
-1.13019
-1.13018
-1.1302
-1.13094
-1.13092
-1.13092
-1.13091
-1.1309
-1.13177
-1.13178
-1.13179
-1.13181
-1.13183
-1.13289
-1.13287
-1.13284
-1.13283
-1.13281
-1.13493
-1.13493
-1.13494
-1.13496
-1.13497
-1.22012
-1.2201
-1.22009
-1.22008
-1.22007
-1.20667
-1.20669
-1.20671
-1.20672
-1.20676
-1.20234
-1.20231
-1.2023
-1.20229
-1.20227
-1.19861
-1.19862
-1.19863
-1.19863
-1.19865
-1.19557
-1.19557
-1.19557
-1.19556
-1.19556
-1.19301
-1.19301
-1.19301
-1.19301
-1.19302
-1.19329
-1.19588
-1.19899
-1.20272
-1.20719
-1.22251
-1.22523
-1.20707
-1.20273
-1.19912
-1.19611
-1.1936
-1.13044
-1.1311
-1.13188
-1.13281
-1.13393
-1.13685
-1.1374
-1.13418
-1.1331
-1.1322
-1.13144
-1.13081
-1.06636
-1.06493
-1.06322
-1.06116
-1.05869
-1.05287
-0.965325
-0.989178
-0.994787
-0.999456
-1.00335
-1.00659
-1.00705
-1.0039
-1.00013
-0.9956
-0.990166
-0.967142
-0.90749
-0.931555
-0.938835
-0.944902
-0.949956
-0.954163
-0.910586
-0.905136
-0.898597
-0.890749
-0.881335
-0.852494
-0.807832
-0.842671
-0.854924
-0.865132
-0.873639
-0.880729
-0.865386
-0.857039
-0.84702
-0.834998
-0.820571
-0.785362
-0.784272
-0.819621
-0.834356
-0.846632
-0.856862
-0.865385
-0.880724
-0.873289
-0.864374
-0.853668
-0.840822
-0.805538
-0.805018
-0.83932
-0.852598
-0.863658
-0.872875
-0.880554
-0.880312
-0.872116
-0.862278
-0.850471
-0.836298
-0.802513
-0.798761
-0.796098
-0.79594
-0.795803
-0.795698
-0.795603
-0.834184
-0.848991
-0.86133
-0.871613
-0.880179
-0.880176
-0.871617
-0.861339
-0.849006
-0.834208
-0.834233
-0.849021
-0.861349
-0.871617
-0.88017
-0.880163
-0.871616
-0.861357
-0.849042
-0.834264
-0.834298
-0.849064
-0.861366
-0.871618
-0.880155
-0.880198
-0.871697
-0.861492
-0.849244
-0.834543
-0.871365
-0.88365
-0.893893
-0.902421
-0.909529
-0.909205
-0.90207
-0.893515
-0.883237
-0.87091
-0.870856
-0.883203
-0.893495
-0.902067
-0.909207
-0.909207
-0.902057
-0.893471
-0.883178
-0.870816
-0.870777
-0.883153
-0.893458
-0.902051
-0.909208
-0.909209
-0.902044
-0.893449
-0.883133
-0.870751
-0.837142
-0.837266
-0.83741
-0.837579
-0.837787
-0.840825
-0.81287
-0.807863
-0.807279
-0.806795
-0.806387