/*--------------------------------*- C++ -*----------------------------------*\
| =========                 |                                                 |
| \\      /  F ield         | OpenFOAM: The Open Source CFD Toolbox           |
|  \\    /   O peration     | Version:  2212                                  |
|   \\  /    A nd           | Website:  www.openfoam.com                      |
|    \\/     M anipulation  |                                                 |
\*---------------------------------------------------------------------------*/
FoamFile
{
    version     2.0;
    format      ascii;
    arch        "LSB;label=32;scalar=64";
    class       volScalarField;
    location    "40";
    object      T;
}
// * * * * * * * * * * * * * * * * * * * * * * * * * * * * * * * * * * * * * //

dimensions      [0 0 0 1 0 0 0];

internalField   nonuniform List<scalar> 
248319
(
300
300
300
300
300
300
300
300
300
300
300
300
300
300
300
300
300
300
300
300
300
300
300
300
300
300
300
300
300
300
300
300
300
300
300
300
300
300
300
300
300
300
300
300
300
300
300
300
300
300
300
300
300
300
300
300
300
300
300
300
300
300
300
300
300
300
300
300
300
300
300
300
300
300
300
300
300
300
300
300
300
300
300
300
300
300
300
300
300
300
300
300
300
300
300
300
300
300
300
300
300
300
300
300
300
300
300
300
300
300
300
300
300
300
300
300
300
300
300
300
300
300
300
300
300
300
300
300
300
300
300
300
300
300
300
300
300
300
300
300
300
300
300
300
300
300
300
300
300
300
300
300
300
300
300
300
300
300
300
300
300
300
300
300
300
300
300
300
300
300
300
300
300
300
300
300
300
300
300
300
300
300
300
300
300
300
300
300
300
300
300
300
300
300
300
300
300
300
300
300
300
300
300
300
300
300
300
300
300
300
300
300
300
300
300
300
300
300
300
300
300
300
300
300
300
300
300
300
300
300
300
300
300
300
300
300
300
300
300
300
300
300
300
300
300
300
300
300
300
300
300
300
300
300
300
300
300
300
300
300
300
300
300
300
300
300
300
300
300
300
300
300
300
300
300
300
300
300
300
300
300
300
300
300
300
300
300
300
300
300
300
300
300
300
300
300
300
300
300
300
300
300
300
300
300
300
300
300
300
300
300
300
300
300
300
300
300
300
300
300
300
300
300
300
300
300
300
300
300
300
300
300
300
300
300
300
300
300
300
300
300
300
300
300
300
300
300
300
300
300
300
300
300
300
300
300
300
300
300
300
300
300
300
300
300
300
300
300
300
300
300
300
300
300
300
300
300
300
300
300
300
300
300
300
300
300
300
300
300
300
300
300
300
300
300
300
300
300
300
300
300
300
300
300
300
300
300
300
300
300
300
300
300
300
300
300
300
300
300
300
300
300
300
300
300
300
300
300
300
300
300
300
300
300
300
300
300
300
300
300
300
300
300
300
300
300
300
300
300
300
300
300
300
300
300
300
300
300
300
300
300
300
300
300
300
300
300
300
300
300
300
300
300
300
300
300
300
300
300
300
300
300
300
300
300
300
300
300
300
300
300
300
300
300
300
300
300
300
300
300
300
300
300
300
300
300
300
300
300
300
300
300
300
300
300
300
300
300
300
300
300
300
300
300
300
300
300
300
300
300
300
300
300
300
300
300
300
300
300
300
300
300
300
300
300
300
300
300
300
300
300
300
300
300
300
300
300
300
300
300
300
300
300
300
300
300
300
300
300
300
300
300
300
300
300
300
300
300
300
300.001
300.001
300.001
300.002
300
300
300
300
300
300
300
300
300
300
300
300
300
300
300
300
300
300
300
300
300
300
300
300
300
300
300
300
300
300
300
300
300
300
300
300
300
300
300
300
300
300
300
300
300
300
300
300
300
300
300
300
300
300.001
300
300
300
300
300
300
300
300
300
300
300
300
300
300
300
300
300
300
300
300
300
300
300
300
300
300
300
300
300
300
300
300
300
300
300
300
300
300
300
300
300
300
300
300
300
300
300
300
300
300
300
300
300
300
300
300
300
300
300
300
300
300
300
300
300
300
300
300
300
300
300
300
300
300
300
300
300
300
300
300
300
300
300
300
300
300
300
300
300
300
300
300
300
300
300
300
300
300
300
300
300
300
300
300
300
300
300
300
300
300
300
300
300
300
300
300
300
300
300
300
300
300
300
300
300
300
300
300
300
300
300
300
300
300
300
300
300
300
300
300
300
300
300
300
300
300
300
300
300
300
300.004
300.003
300.002
300.001
300
300
300
300.003
300.009
300.018
300.027
300.031
300.124
300.109
300.073
300.036
300.013
300.001
300.001
300.002
300.003
300.006
300.009
300.01
300
300
300
300
300
300.001
300.001
300
300
300
300
300
300
300
300
300
300
300.001
300.001
300
300
300
300
300
300
300
300
300
300
300
300.001
300
300
300
300
300
300
300
300
300
300
300.001
300.001
300
300
300
300
300
300
300
300
300
300.001
300.002
300.002
300.001
300
300
300
300
300
300
300
300
300
300.001
300.001
300
300
300
300
300
300
300
300
300
300
300.001
300
300
300
300
300
300
300
300
300
300
300
300
300
300
300
300
300
300
300
300
300
300
300
300
300
300
300
300
300
300
300
300
300
300
300
300
300
300
300
300
300
300
300
300
300
300
300
300
300
300
300
300
300
300
300
300
300
300
300
300
300
300
300
300
300
300
300
300
300
300
300
300
300
300
300
300
300
300
300
300
300
300
300
300
300
300
300
300
300
300
300
300
300
300
300
300
300
300
300
300
300
300
300
300
300
300
300
300
300
300
300
300
300
300
300
300
300
300
300
300
300
300
300
300
300
300
300
300
300
300
300
300
300
300
300
300
300
300
300
300
300
300
300
300
300
300
300
300.002
300.004
300.005
300.052
300.046
300.028
300.011
300.002
300
300.001
300.024
300.077
300.163
300.246
300.28
300.908
300.803
300.529
300.245
300.076
300.004
300.008
300.123
300.442
301.034
301.647
301.904
300.266
300.231
300.149
300.07
300.024
300.003
300.002
300.003
300.007
300.013
300.019
300.022
300.001
300.001
300.001
300.001
300.001
300.002
300.002
300.001
300.001
300
300
300
300
300
300
300.001
300.001
300.002
300.002
300.001
300
300
300
300
300
300
300
300
300.001
300.002
300.001
300
300
300
300
300
300
300
300
300
300.001
300.002
300.003
300.001
300.001
300
300
300
300
300
300
300.001
300.002
300.004
300.006
300.002
300.001
300.001
300
300
300
300.001
300.001
300.001
300.003
300.008
300.003
300.001
300
300
300
300
300
300
300
300.001
300.001
300.003
300.002
300
300
300
300
300
300
300
300
300
300
300.001
300
300
300
300
300
300
300
300
300
300
300
300
300
300
300
300
300
300
300
300
300
300
300
300
300
300
300
300
300
300
300
300
300
300
300
300
300
300
300
300
300
300
300
300
300
300
300
300
300
300
300
300
300
300
300
300
300
300
300
300
300
300
300
300
300
300
300
300
300
300
300
300
300
300
300
300
300
300
300
300
300
300
300
300
300
300
300
300
300
300
300
300
300
300
300
300
300
300
300
300
300
300
300
300
300
300
300
300
300
300
300
300
300
300
300
300
300
300
300
300
300
300
300
300
300
300
300
300
300
300
300
300
300
300
300
300
300
300
300
300
300
300
300
300
300
300
300
300
300
300
300
300
300
300
300
300
300
300.001
300.003
300.012
300.022
300.026
300.21
300.187
300.124
300.055
300.014
300
300.003
300.08
300.26
300.554
300.819
300.917
302.525
302.246
301.476
300.656
300.189
300.009
300.015
300.24
300.966
302.438
303.988
304.602
306.086
305.209
302.995
301.067
300.233
300.02
300.011
300.146
300.581
301.459
302.421
302.829
300.382
300.328
300.205
300.092
300.03
300.006
300.005
300.005
300.008
300.016
300.024
300.028
300.001
300.001
300.001
300.001
300.002
300.005
300.005
300.002
300.001
300.001
300
300
300
300
300
300.001
300.001
300.005
300.004
300.002
300.001
300
300
300
300
300
300.001
300.001
300.002
300.005
300.008
300.003
300.002
300.001
300
300
300
300
300
300.001
300.001
300.004
300.006
300.002
300.001
300.001
300
300
300
300.001
300.001
300.002
300.003
300.008
300.011
300.004
300.002
300.001
300.001
300.001
300.001
300.001
300.002
300.003
300.005
300.014
300.018
300.007
300.004
300.002
300.001
300.001
300.001
300.001
300.001
300.002
300.004
300.01
300.013
300.005
300.002
300.001
300.001
300.001
300
300
300
300.001
300.001
300.004
300.002
300.001
300
300
300
300
300
300
300
300
300
300.001
300
300
300
300
300
300
300
300
300
300
300
300
300
300
300
300
300
300
300
300
300
300
300
300
300
300
300
300
300
300
300
300
300
300
300
300
300
300
300
300
300
300
300
300
300
300
300
300
300
300
300
300
300
300
300
300
300
300
300
300
300
300
300
300
300
300
300
300
300
300
300
300
300
300
300
300
300
300
300
300
300
300
300
300
300
300
300
300
300
300
300
300
300
300
300
300
300
300
300
300
300
300
300
300
300
300
300
300
300
300
300
300
300
300
300
300
300
300
300
300
300
300
300
300
300
300
300
300
300
300
300
300
300
300
300
300
300
300
300
300
300
300
300
300
300
300
300
300
300
300
300
300
300
300
300
300
300
300
300
300
300
300
300.001
300.001
300
300
300
300
300
300.002
300.012
300.036
300.059
300.067
300.475
300.43
300.298
300.14
300.039
300.001
300.008
300.163
300.528
301.112
301.615
301.788
304.173
303.722
302.436
301.068
300.299
300.016
300.024
300.337
301.362
303.493
305.828
306.716
308.929
307.396
303.938
301.388
300.325
300.027
300.038
300.246
301.05
303.545
307.764
309.896
315.859
325.337
350.018
396.321
461.32
459.189
390.528
341.303
318.106
311.126
304.641
309.24
329.123
380.777
456.863
452.541
368.623
318.914
303.944
301.28
300.307
301.687
312.319
357.032
447.11
440.83
347.842
308.957
301.014
300.109
300.101
300.77
306.896
340.195
433.464
431.481
338.418
306.426
300.711
300.097
300.051
300.041
300.068
300.485
304.938
333.427
426.492
432.202
337.345
305.59
300.513
300.058
300.218
300.977
308.442
348.076
443.913
453.304
362.706
315.431
303.223
301.096
305.195
309.802
327.124
378.411
459.976
464.659
393.845
341.761
320.856
313.692
320.271
329.662
352.613
404.27
466.679
466.622
403.337
352.694
329.902
320.394
313.667
320.758
341.291
392.34
464.576
458.895
375.964
325.828
309.314
305.048
300.963
302.672
313.634
358.984
451.45
440.536
343.358
306.969
300.775
300.21
300.049
300.368
304.37
332.717
427.586
421.069
328.489
303.659
300.33
300.061
300.042
300.028
300.226
301.036
303.714
308.743
311.645
307.338
306.066
303.148
301.008
300.204
300.02
300.013
300.122
300.519
301.397
302.418
302.858
300.322
300.281
300.176
300.08
300.027
300.008
300.006
300.004
300.005
300.008
300.011
300.01
300
300
300.001
300.002
300.003
300.006
300.006
300.002
300.001
300
300
300
300
300
300.001
300.001
300.003
300.006
300.005
300.001
300.001
300
300
300
300
300
300
300.001
300.002
300.007
300.007
300.002
300.001
300.001
300
300
300
300
300.001
300.002
300.003
300.01
300.014
300.004
300.002
300.001
300.001
300.001
300.001
300.001
300.001
300.002
300.004
300.012
300.016
300.006
300.003
300.001
300.001
300.001
300.001
300.001
300.002
300.004
300.007
300.021
300.026
300.009
300.004
300.002
300.001
300.001
300.001
300.002
300.003
300.005
300.011
300.032
300.038
300.013
300.007
300.003
300.002
300.002
300.002
300.002
300.003
300.005
300.008
300.022
300.027
300.01
300.006
300.003
300.002
300.002
300.001
300.001
300.002
300.003
300.006
300.017
300.005
300.002
300.001
300
300
300
300
300
300
300
300.001
300.003
300.001
300
300
300
300
300
300
300
300
300
300
300
300
300
300
300
300
300
300
300
300
300
300
300
300
300
300
300
300
300
300
300
300
300
300
300
300
300
300
300
300
300
300
300
300
300
300
300
300
300
300
300
300
300
300
300
300
300
300
300
300
300
300
300
300
300
300
300
300
300
300
300
300
300
300
300
300
300
300
300
300
300
300
300
300
300
300
300
300
300
300
300
300
300
300
300
300
300
300
300
300
300
300
300
300
300
300
300
300
300
300
300
300
300
300
300
300
300
300
300
300
300
300
300
300
300
300
300
300
300
300
300
300
300
300
300
300
300
300
300
300
300
300
300
300
300
300
300
300
300
300
300
300
300
300
300
300
300
300
300
300
300
300
300
300
300
300
300
300
300
300
300
300
300
300
300
300
300
300
300
300
300
300
300
300.001
300.001
300.092
300.083
300.056
300.021
300.004
300
300.001
300.07
300.233
300.461
300.629
300.682
302.38
302.197
301.576
300.781
300.249
300.013
300.023
300.389
301.363
303.042
304.54
305.046
307.28
306.442
303.93
301.552
300.397
300.031
300.045
300.197
302.004
313.532
358.045
449.167
455.009
458.987
460.444
458.805
458.86
392.012
390.85
388.999
378.903
368.995
319.761
326.513
334.404
343.963
348.239
324.836
319.53
312.539
307.651
304.329
300.949
302.652
306.266
311.739
315.425
309.62
307.882
303.873
301.212
300.283
300.703
301.922
304.683
308.326
309.906
315.567
313.281
309.353
306.197
303.72
311.072
314.96
318.062
322.607
325.237
347.031
346.288
342.779
338.937
332.81
384.918
391.962
395.637
391.615
390.192
458.433
459.673
464.014
463.839
461.266
455.602
372.182
324.544
307.025
301.881
300.256
300.088
300.59
303.249
315.556
357.843
447.465
437.176
343.457
307.746
300.876
300.11
300.055
300.048
300.1
300.174
301.025
307.859
341.759
433.161
437.191
345.255
308.88
301.193
300.197
300.106
300.082
300.139
300.835
306.984
340.103
433.011
426.127
333.084
304.927
300.558
300.136
300.098
300.103
300.158
300.74
306.017
336.435
429.097
421.089
329.364
304.01
300.383
300.063
300.04
300.029
300.05
300.356
304.121
330.818
423.68
435.675
447.36
455.8
460.769
463.311
397.85
387.138
370.583
354.263
339.751
306.203
311.369
321.425
335.089
345.831
324.977
317.024
307.284
302.034
300.698
300.235
300.921
304.226
311.557
317.189
310.383
308.064
303.684
301.153
300.272
300.219
301.007
302.893
305.165
306.177
302.073
301.794
301.088
300.438
300.115
300.012
300.007
300.019
300.047
300.092
300.136
300.148
300
300.002
300.002
300.003
300.004
300.006
300.005
300.003
300.001
300.001
300
300
300
300
300
300.001
300.001
300.005
300.007
300.002
300.001
300
300
300
300
300
300
300.001
300.002
300.008
300.008
300.002
300.001
300.001
300
300
300
300
300.001
300.002
300.003
300.011
300.009
300.002
300.001
300.001
300
300
300
300.001
300.001
300.002
300.003
300.012
300.015
300.004
300.002
300.001
300.001
300.001
300.001
300.001
300.001
300.003
300.005
300.018
300.022
300.006
300.003
300.002
300.001
300.001
300.001
300.001
300.002
300.004
300.008
300.026
300.03
300.009
300.005
300.003
300.002
300.001
300.002
300.002
300.003
300.006
300.011
300.034
300.037
300.012
300.007
300.004
300.002
300.002
300.002
300.003
300.004
300.008
300.015
300.044
300.05
300.018
300.009
300.005
300.003
300.002
300.002
300.003
300.004
300.007
300.012
300.031
300.021
300.008
300.004
300.002
300.001
300.001
300
300
300.001
300.001
300.002
300.006
300.003
300.001
300.001
300
300
300
300
300
300
300
300.001
300.001
300.001
300
300
300
300
300
300
300
300
300
300
300
300
300
300
300
300
300
300
300
300
300
300
300
300
300
300
300
300
300
300
300
300
300
300
300
300
300
300
300
300
300
300
300
300
300
300
300
300
300
300
300
300
300
300
300
300
300
300
300
300
300
300
300
300
300
300
300
300
300
300
300
300
300
300
300
300
300
300
300
300
300
300
300
300
300
300
300
300
300
300
300
300
300
300
300
300
300
300
300
300
300
300
300
300
300
300
300
300
300
300
300
300
300
300
300
300
300
300
300
300
300
300
300
300
300
300
300
300
300
300
300
300
300
300
300
300
300
300
300
300
300
300
300
300
300
300
300
300
300
300
300
300
300
300
300
300
300
300
300
300
300
300
300
300
300
300
300
300
300
300
300
300
300
300
300
300
300
300
300
300
300
300
300
300
300
300.001
300.001
300.001
300
300
300
300
300.006
300.025
300.057
300.082
300.09
300.709
300.664
300.523
300.291
300.097
300.003
300.019
300.334
300.988
301.862
302.454
302.616
305.398
304.995
303.536
301.675
300.506
300.032
300.055
300.519
301.854
304.469
307.01
307.833
308.125
307.482
305.143
302.367
300.802
300.178
300.964
305.485
314.694
337.694
387.064
461.527
466.004
466.655
463.662
458.049
456.981
387.079
389.197
397.003
400.528
398.105
346.386
348.761
347.736
345.581
344.975
324.621
323.8
322.156
321.79
319.343
307.936
310.125
311.668
314.339
315.521
310.337
309.135
305.694
302.955
301.566
304.794
305.915
307.816
310.281
311.152
317.001
316.805
316.379
318.069
318.324
334.097
332.416
328.013
327.02
326.888
347.707
349.175
354.626
360.972
363.535
411.27
409.289
402.454
392.834
390.865
459.628
460.672
466.582
469.774
470.375
467.519
404.728
357.993
330.45
315.772
304.259
303.174
312.03
324.324
348.878
394.472
463.202
455.339
374.038
327.841
309.184
302.833
300.42
300.372
302.192
307.639
325.057
370.616
453.733
444.776
354.288
313.618
302.491
300.404
300.128
300.108
300.167
300.926
307.342
340.37
432.001
431.793
341.568
308.181
301.216
300.305
300.228
300.195
300.314
301.478
309.624
345.628
435.481
443.959
354.18
312.452
301.988
300.38
300.2
300.151
300.263
301.348
309.534
347.366
439.124
431.58
338.623
306.666
300.938
300.277
300.2
300.222
300.347
301.324
308.59
343.969
436.103
447.412
356.915
313.491
302.392
300.551
300.253
300.111
300.242
301.338
309.364
347
440.271
429.716
335.856
305.669
300.614
300.086
300.04
300.031
300.318
301.297
303.869
307.784
309.646
315.9
323.076
344.402
394.992
461.225
459.486
387.807
334.203
316.483
311.29
304.512
307.774
322.278
372.994
456.362
450.088
357.9
312.816
302.549
301.065
300.274
300.855
307.328
344.008
440.286
428.918
334.794
305.065
300.469
300.061
300.098
300.839
307.782
344.916
440.699
449.336
356.487
312.842
302.183
300.486
302.081
305.478
320.13
368.747
455.725
459.97
381.102
329.132
311.328
306.253
312.496
318.718
339.262
391.064
460.108
460.39
393.992
346.93
323.951
316.085
309.975
308.401
304.463
301.548
300.383
300.039
300.024
300.256
301.002
302.609
304.356
305.008
303.242
302.845
301.756
300.702
300.176
300.02
300.012
300.06
300.186
300.401
300.612
300.682
300.029
300.032
300.026
300.016
300.01
300.009
300.009
300.004
300.002
300.001
300.001
300.001
300.001
300.001
300.001
300.003
300.005
300.009
300.006
300.003
300.001
300.001
300
300
300
300
300.001
300.002
300.003
300.006
300.009
300.004
300.002
300.001
300
300
300.001
300.001
300.001
300.003
300.006
300.014
300.01
300.002
300.001
300.001
300
300
300
300
300.001
300.001
300.003
300.01
300.013
300.004
300.002
300.001
300
300
300
300.001
300.001
300.002
300.005
300.015
300.017
300.005
300.002
300.001
300.001
300.001
300.001
300.001
300.001
300.003
300.006
300.02
300.017
300.005
300.002
300.001
300.001
300.001
300.001
300.001
300.002
300.003
300.006
300.02
300.022
300.007
300.004
300.002
300.001
300.001
300.001
300.001
300.002
300.004
300.008
300.025
300.027
300.009
300.005
300.003
300.002
300.001
300.002
300.002
300.003
300.005
300.01
300.029
300.04
300.014
300.008
300.004
300.003
300.002
300.003
300.003
300.005
300.009
300.016
300.043
300.055
300.021
300.011
300.006
300.004
300.003
300.003
300.003
300.005
300.008
300.014
300.036
300.026
300.01
300.005
300.003
300.002
300.001
300
300
300.001
300.001
300.003
300.007
300.004
300.001
300.001
300
300
300
300
300
300
300
300.001
300.002
300.001
300
300
300
300
300
300
300
300
300
300
300
300
300
300
300
300
300
300
300
300
300
300
300
300
300
300
300
300
300
300
300
300
300
300
300
300
300
300
300
300
300
300
300
300
300
300
300
300
300
300
300
300
300
300
300
300
300
300
300
300
300
300
300
300
300
300
300
300
300
300
300
300
300
300
300
300
300
300
300
300
300
300
300
300
300
300
300
300
300
300
300
300
300
300
300
300
300
300
300
300
300
300
300
300
300
300
300
300
300
300
300
300
300
300
300
300
300
300
300
300
300
300
300
300
300
300
300
300
300
300
300
300
300
300
300
300
300
300
300
300
300
300
300
300
300
300
300
300
300
300
300
300
300
300
300
300
300
300
300
300
300
300
300
300
300
300
300
300
300
300
300
300
300
300
300
300
300
300
300
300
300
300
300
300
300
300
300
300
300
300
300
300
300
300
300
300
300
300.001
300.001
300.001
300
300
300
300
300.007
300.027
300.055
300.075
300.082
300.69
300.65
300.52
300.303
300.108
300.004
300.026
300.422
301.128
301.944
302.458
302.589
305.532
305.182
303.937
302.053
300.684
300.054
300.142
301.034
302.432
304.097
305.091
305.361
308.363
307.841
306.076
303.704
302.055
301.113
301.264
302.834
304.674
306.746
308.098
308.521
312.501
312.285
311.613
311.569
311.866
311.432
315.602
315.684
315.223
315.062
315.725
316.421
318.892
317.778
316.834
318.283
320.431
352.667
345.454
338.17
335.67
336.682
358.824
356.79
358.479
366.183
373.938
403.607
397.497
391.726
389.649
393.093
436.023
433.891
435.926
439.215
442.046
481.403
480.84
479.788
478.916
479.614
488.401
488.218
487.992
487.421
486.654
458.255
460.368
462.582
463.615
464.269
438.528
437.239
433.712
430.503
428.592
402.446
402.532
404.905
409.72
412.336
384.831
383.691
380.886
380.253
381.76
335.549
334.211
334.612
338.897
342.781
346.458
343.65
337.265
332.749
330.967
329.66
338.856
382.647
401.483
424.57
453.749
484.961
482.405
446.72
416.546
395.328
379.096
335.998
324.147
354.882
376.209
404.536
440.465
480.489
471.712
416.598
374.358
346.354
328.757
309.591
307.88
327.768
344.963
372.798
415.568
471.579
462.214
391.917
346.319
322.448
310.919
302.768
302.754
310.566
321.773
345.42
391.261
462.124
453.685
370.579
325.001
307.672
302.311
300.545
300.263
300.475
302.468
313.582
354.465
444.802
444.865
354.9
314.061
302.818
300.756
300.551
300.442
300.528
301.579
308.944
342.587
432.051
436.274
347.242
310.64
301.891
300.517
300.348
300.342
300.59
302.519
313.89
356.534
445.189
441.019
350.389
311.064
301.831
300.437
300.251
300.358
300.494
301.435
308.213
342.129
434.248
438.559
347.692
310.512
302.028
300.659
300.419
300.491
301.013
303.457
315.973
360.727
449.291
456.632
373.471
322.867
305.642
301.639
300.625
300.309
300.964
304.234
320.255
370.541
455.698
447.937
357.401
313.584
302.28
300.409
300.136
300.048
300.134
301.003
308.031
343.704
437.975
443.309
350.023
310.151
301.369
300.177
300.052
300.046
300.463
301.766
304.769
308.136
309.259
314.323
322.126
342.011
384.179
453.951
453.199
382.386
337.66
318.146
311.755
306.182
311.163
330.178
379.638
454.895
454.535
372.262
321.717
305.49
302.17
300.567
302.341
314.291
361.174
451.087
444.325
350.643
309.747
301.144
300.132
300.73
303.836
317.924
364.069
452.118
457.552
376.943
326.329
307.793
302.493
304.84
311.398
332.393
383.465
459.36
456.98
384.603
336.17
314.757
308.34
312.704
319.916
338.736
380.372
451.818
451.059
379.396
339.85
322.024
314.439
309.762
308.79
305.588
302.377
300.748
300.089
300.066
300.689
301.841
303.561
304.8
305.165
304.132
303.791
302.62
301.281
300.445
300.044
300.019
300.153
300.544
301.252
301.936
302.178
300.479
300.448
300.314
300.157
300.056
300.013
300.011
300.005
300.003
300.004
300.006
300.009
300.002
300.002
300.002
300.004
300.006
300.011
300.02
300.008
300.004
300.002
300.001
300.001
300.001
300.001
300.002
300.003
300.007
300.014
300.014
300.006
300.003
300.001
300.001
300.001
300
300.001
300.001
300.002
300.004
300.009
300.014
300.006
300.003
300.001
300.001
300.001
300.001
300.001
300.002
300.004
300.008
300.021
300.019
300.008
300.004
300.002
300.001
300.001
300
300
300.001
300.002
300.003
300.012
300.016
300.004
300.002
300.001
300.001
300
300
300.001
300.001
300.002
300.004
300.016
300.02
300.005
300.002
300.001
300.001
300.001
300.001
300.001
300.002
300.003
300.006
300.024
300.023
300.007
300.003
300.002
300.001
300.001
300.001
300.001
300.002
300.004
300.007
300.026
300.029
300.008
300.004
300.002
300.001
300.001
300.001
300.002
300.003
300.005
300.01
300.032
300.036
300.011
300.006
300.003
300.002
300.001
300.002
300.002
300.004
300.007
300.013
300.04
300.031
300.011
300.006
300.003
300.002
300.002
300.002
300.003
300.004
300.007
300.012
300.032
300.046
300.017
300.009
300.005
300.004
300.003
300.003
300.004
300.007
300.012
300.024
300.06
300.04
300.016
300.009
300.006
300.004
300.003
300.002
300.002
300.003
300.006
300.012
300.031
300.008
300.003
300.002
300.001
300.001
300
300
300
300
300.001
300.002
300.005
300.002
300.001
300
300
300
300
300
300
300
300
300
300.001
300
300
300
300
300
300
300
300
300
300
300
300
300
300
300
300
300
300
300
300
300
300
300
300
300
300
300
300
300
300
300
300
300
300
300
300
300
300
300
300
300
300
300
300
300
300
300
300
300
300
300
300
300
300
300
300
300
300
300
300
300
300
300
300
300
300
300
300
300
300
300
300
300
300
300
300
300
300
300
300
300
300
300
300
300
300
300
300
300
300
300
300
300
300
300
300
300
300
300
300
300
300
300
300
300
300
300
300
300
300
300
300
300
300
300
300
300
300
300
300
300
300
300
300
300
300
300
300
300
300
300
300
300
300
300
300
300
300
300
300
300
300
300
300
300
300
300
300
300
300
300
300
300
300
300
300
300
300
300
300
300
300
300
300
300
300
300
300
300
300
300
300
300
300
300
300
300
300
300
300
300
300
300
300
300
300
300
300
300
300
300
300
300
300
300
300
300
300
300
300
300
300
300
300
300
300
300
300.001
300.001
300.001
300.071
300.067
300.051
300.027
300.008
300
300.005
300.115
300.299
300.491
300.599
300.63
302.405
302.312
301.909
301.189
300.487
300.031
300.036
300.528
301.187
301.785
302.082
302.154
304.937
304.767
304.042
302.686
301.335
300.196
300.244
301.529
302.753
303.828
304.38
304.535
308.666
308.278
307.118
305.321
303.475
301.373
311.946
314.231
314.924
315.901
317.43
318.347
321.508
320.186
317.435
315.076
313.259
310.005
324.366
328.921
334.235
342.354
349.534
352.117
352.821
350.923
345.421
338.925
333.754
329.724
334.312
338.238
344.223
352.09
358.445
360.628
372.944
370.74
363.377
352.672
344.626
365.618
373.932
384.362
392.849
396.427
412.518
407.822
398.536
387.413
377.606
403.36
414.359
424.237
431.766
435.175
461.015
459.303
455.44
449.222
441.226
480.955
483.589
485.521
486.608
487.109
485.324
455.959
427.335
403.108
387.444
383.736
397.859
423.286
453.88
484.731
483.421
449.293
414.659
388.389
375.785
367.607
378.109
403.833
441.945
481.123
477.922
432.611
392.443
369.635
361.593
358.344
363.401
381.198
420.616
472.898
466.576
406.098
367.444
353.648
350.53
337.757
335.418
348.732
355.637
375.167
415.791
470.956
468.212
408.708
366.829
347.823
340.713
327.914
327.618
372.96
387.948
409.015
441.292
480.611
480.799
440.95
404.031
374.687
352.831
318.42
316.975
351.437
373.282
403.05
440.596
480.75
471.579
415.46
372.58
344.898
327.953
307.868
307.998
326.986
343.51
370.932
414.019
471.056
461.822
390.615
344.804
321.417
310.489
303.138
300.902
302.556
307.813
325.025
370.551
453.642
454.073
371.627
326.136
308.768
303.392
301.685
301.06
301.337
303.665
315.449
356.586
445.617
432.997
344.509
310.249
302.209
300.92
300.794
300.575
300.818
302.524
312.145
349.614
437.627
446.64
359.436
315.849
303.319
300.913
300.535
300.387
300.686
302.538
313.075
353.896
443.068
437.091
346.323
310.37
302.217
300.843
300.581
300.721
301.143
303.097
313.046
351.877
441.027
450.949
364.689
319.12
305.064
301.766
300.854
301.124
302.684
307.653
326.043
376.379
457.385
450.218
369.266
323.417
306.988
302.463
301.14
300.628
301.505
305.207
320.815
367.242
449.832
449.368
365.353
318.781
303.993
300.906
300.318
300.138
300.439
302.494
314.323
358.063
446.393
447.369
360.123
315.513
302.823
300.511
300.176
300.067
300.25
301.916
313
357.45
448.803
455.255
373.383
326.578
308.651
302.86
300.534
300.944
302.219
304.022
306.896
309.688
310.469
315.225
323.065
340.722
380.711
453.304
454.073
382.237
341.002
322.251
314.443
311.94
320.139
342.852
390.607
460.695
463.716
394.884
345.579
321.171
310.797
308.795
319.53
344.342
393.642
463.502
458.826
381.639
333.74
312.812
304.88
313.118
326.163
352.091
398.979
465.376
468.066
405.308
357.757
330.436
316.342
315.634
327.736
353.457
401.513
466.625
461.253
392.486
346.888
324.332
314.762
315.633
324.155
342.992
384.406
455.866
456.118
384.264
342.915
324.442
316.089
311.134
310.603
308.301
305.992
304.526
303.494
301
302.292
303.828
305.624
306.775
307.188
306.219
305.861
304.714
302.783
301.307
300.266
300.114
300.817
301.826
302.921
303.575
303.798
303.012
302.857
302.22
301.264
300.495
300.053
300.032
300.27
300.751
301.413
301.912
302.046
300.969
300.893
300.604
300.285
300.091
300.017
300.011
300.037
300.1
300.197
300.284
300.306
300.015
300.009
300.005
300.004
300.004
300.009
300.016
300.004
300.002
300.001
300.001
300.001
300.001
300.001
300.001
300.003
300.006
300.018
300.029
300.009
300.004
300.002
300.001
300.001
300.001
300.001
300.002
300.005
300.012
300.033
300.022
300.01
300.005
300.002
300.001
300.001
300.001
300.001
300.002
300.005
300.01
300.022
300.032
300.015
300.007
300.003
300.002
300.001
300.002
300.002
300.004
300.009
300.019
300.045
300.028
300.01
300.005
300.002
300.001
300.001
300.001
300.001
300.003
300.005
300.011
300.026
300.034
300.014
300.006
300.003
300.002
300.001
300.001
300.001
300.001
300.003
300.006
300.021
300.027
300.007
300.004
300.002
300.001
300.001
300.001
300.001
300.002
300.005
300.01
300.035
300.029
300.007
300.004
300.002
300.001
300.001
300.001
300.001
300.002
300.005
300.009
300.036
300.043
300.011
300.006
300.003
300.002
300.001
300.002
300.002
300.004
300.007
300.014
300.051
300.06
300.017
300.008
300.004
300.003
300.002
300.003
300.003
300.005
300.01
300.02
300.07
300.044
300.015
300.008
300.004
300.002
300.002
300.002
300.003
300.005
300.009
300.017
300.049
300.034
300.013
300.008
300.004
300.003
300.002
300.004
300.004
300.006
300.01
300.018
300.047
300.065
300.026
300.013
300.007
300.004
300.004
300.004
300.004
300.006
300.01
300.018
300.045
300.037
300.015
300.007
300.004
300.002
300.002
300.001
300.001
300.001
300.002
300.004
300.01
300.007
300.002
300.001
300.001
300
300
300
300
300
300.001
300.001
300.003
300.001
300
300
300
300
300
300
300
300
300
300
300
300
300
300
300
300
300
300
300
300
300
300
300
300
300
300
300
300
300
300
300
300
300
300
300
300
300
300
300
300
300
300
300
300
300
300
300
300
300
300
300
300
300
300
300
300
300
300
300
300
300
300
300
300
300
300
300
300
300
300
300
300
300
300
300
300
300
300
300
300
300
300
300
300
300
300
300
300
300
300
300
300
300
300
300
300
300
300
300
300
300
300
300
300
300
300
300
300
300
300
300
300
300
300
300
300
300
300
300
300
300
300
300
300
300
300
300
300
300
300
300
300
300
300
300
300
300
300
300
300.001
300.001
300.002
300.01
300.001
300
300
300
300
300
300
300
300
300
300
300
300
300
300
300
300
300
300
300
300
300
300
300
300
300
300
300
300
300
300
300
300
300
300
300
300
300
300
300
300
300
300
300
300
300
300
300
300
300
300
300
300
300
300
300
300
300
300
300
300
300
300
300
300
300
300
300
300
300
300
300
300
300
300
300
300
300
300
300
300
300
300
300
300
300
300
300.001
300.001
300.001
300.061
300.058
300.046
300.026
300.009
300
300.006
300.119
300.287
300.447
300.528
300.548
300.467
300.455
300.399
300.271
300.121
300.007
300.042
300.565
301.15
301.62
301.829
301.874
301.616
301.586
301.442
301.086
300.588
300.051
300.294
301.666
302.733
303.576
304.002
304.121
308.911