/*--------------------------------*- C++ -*----------------------------------*\
| =========                 |                                                 |
| \\      /  F ield         | OpenFOAM: The Open Source CFD Toolbox           |
|  \\    /   O peration     | Version:  2212                                  |
|   \\  /    A nd           | Website:  www.openfoam.com                      |
|    \\/     M anipulation  |                                                 |
\*---------------------------------------------------------------------------*/
FoamFile
{
    version     2.0;
    format      ascii;
    arch        "LSB;label=32;scalar=64";
    class       volScalarField;
    location    "70";
    object      p;
}
// * * * * * * * * * * * * * * * * * * * * * * * * * * * * * * * * * * * * * //

dimensions      [0 2 -2 0 0 0 0];

internalField   nonuniform List<scalar> 
248319
(
0
0.0192781
0.0402674
0.0499092
0.057949
0.0646518
0.0702456
0.109353
0.103288
0.0960144
0.0872921
0.076833
0.0510439
0.0498342
0.076138
0.0872717
0.0965681
0.104326
0.110797
0.0812578
0.0763877
0.070599
0.0636707
0.0553445
0.033092
0.0137198
0.0280088
0.034222
0.0395224
0.0440875
0.0480615
0.0626267
0.0577887
0.0519907
0.0450515
0.0367422
0.0196809
-0.0539487
-0.0471892
-0.0434438
-0.0403195
-0.0376985
-0.0355222
-0.0212322
-0.0247
-0.0288587
-0.0338366
-0.0398019
-0.0507627
-0.0555461
-0.0402192
-0.0334768
-0.0278618
-0.0231813
-0.0192647
0.0634655
0.0574261
0.0501776
0.0414867
0.0310654
0.00054295
0.0309067
0.0593118
0.0692845
0.077599
0.0845268
0.0903059
0.100135
0.0944887
0.0877137
0.0795868
0.0698433
0.0359018
0.0499481
0.0749714
0.0847344
0.0928716
0.0996555
0.10531
0.109527
0.103004
0.0951825
0.0858062
0.0745669
0.0473125
0.0190745
0.0397461
0.0463729
0.0518991
0.0565819
0.0606307
-0.0356323
-0.0383625
-0.0410925
-0.0438205
-0.04655
-0.0535716
-0.0515046
-0.0438562
-0.0414678
-0.0392272
-0.0370889
-0.0350241
-0.140388
-0.140798
-0.141188
-0.141557
-0.141896
-0.14527
-0.144826
-0.141948
-0.140967
-0.140153
-0.139471
-0.138898
-0.132516
-0.133794
-0.135339
-0.137177
-0.139387
-0.144444
-0.145906
-0.139378
-0.136705
-0.134477
-0.132607
-0.131067
-0.133993
-0.13563
-0.137608
-0.139968
-0.142812
-0.150195
-0.0695836
-0.0525823
-0.0457621
-0.0400765
-0.0353433
-0.0313809
0.0473139
0.0406935
0.0327528
0.023222
0.0117957
-0.0194651
-0.00915946
0.0315416
0.0452775
0.0567305
0.066281
0.0742433
0.0901742
0.083369
0.0752083
0.0654171
0.0536745
0.0104141
0.00965828
0.0523176
0.0641552
0.0740219
0.0822452
0.0891014
0.0978814
0.0923003
0.0856033
0.0775664
0.0679244
0.0344806
0.0489422
0.0735202
0.0833187
0.0914828
0.0982861
0.103953
0.109475
0.10278
0.0947537
0.085131
0.0735946
0.0456352
0.0147839
0.0354095
0.0421948
0.0479078
0.0527894
0.0570358
-0.0392385
-0.0419544
-0.0446721
-0.0473901
-0.0501105
-0.0586923
-0.147621
-0.143315
-0.142597
-0.141879
-0.141162
-0.140444
-0.139444
-0.140148
-0.140847
-0.141545
-0.142244
-0.146188
-0.243997
-0.242352
-0.242279
-0.242206
-0.242134
-0.24206
-0.242969
-0.242957
-0.242923
-0.242862
-0.242765
-0.24376
-0.243293
-0.242388
-0.242262
-0.242155
-0.24207
-0.242003
-0.238677
-0.238999
-0.23938
-0.239846
-0.240397
-0.242608
-0.242861
-0.23981
-0.23909
-0.238487
-0.237988
-0.237562
-0.238124
-0.238593
-0.239156
-0.239824
-0.240624
-0.244228
-0.245665
-0.241507
-0.240531
-0.239723
-0.239039
-0.23848
-0.136228
-0.138072
-0.14029
-0.142945
-0.146132
-0.154327
-0.0773998
-0.0596851
-0.0525313
-0.0465659
-0.0416007
-0.0374544
0.0342149
0.0274377
0.0193039
0.00953993
-0.00216146
-0.0328472
-0.0252853
0.0126321
0.026663
0.0383616
0.0481147
0.0562421
0.0568245
0.0485568
0.0386337
0.02673
0.0124495
-0.0247303
-0.00912822
0.0306906
0.0447119
0.0563982
0.0661405
0.0742615
0.0739356
0.0657337
0.0558926
0.0440868
0.0299175
-0.00975328
0.00872881
0.0514159
0.0634154
0.0734127
0.0817453
0.0886901
0.0975794
0.0919199
0.0851307
0.0769821
0.0672057
0.0335575
0.048073
0.0729864
0.0829148
0.0911879
0.0980831
0.103826
0.109427
0.102621
0.0944582
0.0846728
0.0729402
0.0445347
0.0132913
0.033999
0.0409717
0.0468584
0.0518985
0.0562854
-0.0407167
-0.0434399
-0.0461624
-0.0488851
-0.0516091
-0.060394
-0.148679
-0.144124
-0.143449
-0.142773
-0.142099
-0.141423
-0.242702
-0.242777
-0.242853
-0.242931
-0.243007
-0.245095
-0.24448
-0.242459
-0.242387
-0.242315
-0.242243
-0.24217
-0.34341
-0.343407
-0.343405
-0.343404
-0.3434
-0.344179
-0.343949
-0.343385
-0.343408
-0.343429
-0.343451
-0.343472
-0.34421
-0.344158
-0.344093
-0.344016
-0.34392
-0.344007
-0.343677
-0.343583
-0.343637
-0.343688
-0.343728
-0.343762
-0.341951
-0.341998
-0.342051
-0.342119
-0.3422
-0.343026
-0.342978
-0.341722
-0.341594
-0.341481
-0.341393
-0.341326
-0.34147
-0.341552
-0.341662
-0.341796
-0.341947
-0.343471
-0.343954
-0.342138
-0.341951
-0.341786
-0.341655
-0.341542
-0.340759
-0.340953
-0.341169
-0.34144
-0.341759
-0.344007
-0.246058
-0.241092
-0.239715
-0.238569
-0.237607
-0.236821
-0.13452
-0.136838
-0.139626
-0.142966
-0.146967
-0.156225
-0.0818386
-0.0633179
-0.0553521
-0.0487085
-0.0431865
-0.0385643
0.0239708
0.0174921
0.00971533
0.000384013
-0.0108005
-0.040509
-0.0341781
0.00127558
0.0135905
0.0238591
0.0324192
0.0395525
0.0405651
0.0333936
0.0247885
0.0144645
0.00208015
-0.033094
-0.032908
0.00219452
0.0145661
0.0248776
0.0334727
0.0406338
0.0567277
0.0484241
0.0384597
0.026507
0.0121644
-0.0248716
-0.0250389
0.0120531
0.0263962
0.038348
0.0483087
0.0566081
0.0737421
0.065529
0.0556729
0.0438435
0.0296516
-0.0101009
0.00828243
0.0511225
0.0631589
0.0731841
0.0815429
0.088506
0.0974565
0.0917777
0.0849662
0.0767903
0.0669763
0.0331507
0.0476889
0.0727848
0.082755
0.0910613
0.0979841
0.103751
0.109384
0.102532
0.0943147
0.0844625
0.0726514
0.044066
0.0127369
0.0335608
0.0406023
0.0465484
0.0516406
0.056069
-0.041199
-0.0439179
-0.0466359
-0.0493547
-0.0520748
-0.0610011
-0.149284
-0.144721
-0.144042
-0.143362
-0.142682
-0.142003
-0.243158
-0.243234
-0.243311
-0.243388
-0.243464
-0.245542
-0.344823
-0.343998
-0.343998
-0.343998
-0.343998
-0.343998
-0.343684
-0.343684
-0.343684
-0.343684
-0.343684
-0.344518
-0.444286
-0.443961
-0.443961
-0.443961
-0.443961
-0.443961
-0.443807
-0.443806
-0.443805
-0.443804
-0.443801
-0.444086
-0.443998
-0.443845
-0.443859
-0.443874
-0.443888
-0.443901
-0.444462
-0.444431
-0.444393
-0.444346
-0.44429
-0.444141
-0.443995
-0.444131
-0.444189
-0.444243
-0.444288
-0.444321
-0.443396
-0.443396
-0.44339
-0.443384
-0.443379
-0.443635
-0.443709
-0.443264
-0.443261
-0.443246
-0.443243
-0.443227
-0.443589
-0.443611
-0.443607
-0.443628
-0.443644
-0.444154
-0.444728
-0.444189
-0.444155
-0.444139
-0.444129
-0.444107
-0.44441
-0.444435
-0.444471
-0.444506
-0.444561
-0.445182
-0.445396
-0.444578
-0.444463
-0.444361
-0.444286
-0.444222
-0.338893
-0.33926
-0.33968
-0.340194
-0.340808
-0.343696
-0.245853
-0.239667
-0.237487
-0.235669
-0.234142
-0.232883
-0.124322
-0.127574
-0.131488
-0.136183
-0.141819
-0.15471
-0.0825146
-0.0606389
-0.0513641
-0.0436289
-0.0371973
-0.0318113
0.0161661
0.00996295
0.00252129
-0.00640714
-0.0171163
-0.0446063
-0.0407136
-0.0115195
-0.00121176
0.00738432
0.014546
0.0205194
0.0212583
0.0153382
0.00823715
-0.000285648
-0.0105077
-0.0395482
-0.039321
-0.0103374
-0.000137771
0.00836431
0.0154482
0.0213546
0.0213312
0.0154276
0.00835198
-0.000143126
-0.0103408
-0.039353
-0.0329596
0.00218681
0.0145481
0.0248505
0.0334333
0.0405858
0.040538
0.0333862
0.0248063
0.0145059
0.00214575
-0.0330531
-0.0251684
0.0119826
0.0263242
0.0382755
0.0482337
0.056531
0.0736461
0.0654304
0.0555717
0.0437392
0.0295444
-0.0102804
0.00808983
0.0510182
0.0630594
0.0730914
0.0814552
0.0884231
0.0974037
0.0917222
0.0849047
0.0767236
0.0669051
0.0330028
0.0475578
0.0727238
0.0827041
0.091019
0.0979493
0.103723
0.109373
0.102505
0.0942691
0.0843933
0.0725551
0.0439227
0.012581
0.0335111
0.0405926
0.0465727
0.0516908
0.0561365
-0.0413536
-0.044082
-0.0468095
-0.0495369
-0.0522653
-0.0612184
-0.149542
-0.144987
-0.144306
-0.143625
-0.142942
-0.142259
-0.243426
-0.243504
-0.243581
-0.243657
-0.243734
-0.245791
-0.345037
-0.344234
-0.344234
-0.344234
-0.344234
-0.344234
-0.444392
-0.444392
-0.444392
-0.444392
-0.444392
-0.444694
-0.444505
-0.444186
-0.444186
-0.444186
-0.444186
-0.444186
-0.543748
-0.543748
-0.543748
-0.543748
-0.543748
-0.543883
-0.543697
-0.543556
-0.543556
-0.543556
-0.543556
-0.543556
-0.543444
-0.543444
-0.543445
-0.543443
-0.543442
-0.543562
-0.543531
-0.543486
-0.543494
-0.543501
-0.543508
-0.543515
-0.543901
-0.543885
-0.543866
-0.543841
-0.543812
-0.543677
-0.543682
-0.543823
-0.543862
-0.543888
-0.543907
-0.543939
-0.543609
-0.543593
-0.543603
-0.54359
-0.543582
-0.543625
-0.543936
-0.543846
-0.54384
-0.543856
-0.543837
-0.543845
-0.544588
-0.544579
-0.544599
-0.544588
-0.544593
-0.544626
-0.545633
-0.545714
-0.545715
-0.545718
-0.545707
-0.545711
-0.547061
-0.547065
-0.54707
-0.547071
-0.547077
-0.546853
-0.54813
-0.548473
-0.548448
-0.548443
-0.548423
-0.548413
-0.549316
-0.54934
-0.54938
-0.549413
-0.549462
-0.549091
-0.445343
-0.444149
-0.443877
-0.443652
-0.443467
-0.44331
-0.336084
-0.336742
-0.337513
-0.338447
-0.339572
-0.343326
-0.246675
-0.238982
-0.235668
-0.232902
-0.230587
-0.228666
-0.121773
-0.125813
-0.130678
-0.136515
-0.143517
-0.159732
-0.109597
-0.0815231
-0.0712075
-0.0626024
-0.0554306
-0.0494484
-0.0145124
-0.0204342
-0.0275271
-0.0360435
-0.0462558
-0.0736497
-0.0681764
-0.0358261
-0.0257754
-0.017398
-0.0104099
-0.00458155
-0.00460049
-0.0104189
-0.0173928
-0.0257601
-0.0358051
-0.0676311
-0.0675443
-0.0358206
-0.0257752
-0.0174047
-0.0104292
-0.00461446
-0.0046602
-0.0104731
-0.0174507
-0.0258179
-0.0358615
-0.0676108
-0.0677008
-0.0359175
-0.0258682
-0.0174955
-0.010518
-0.00470223
0.0212941
0.0153906
0.00831273
-0.000184563
-0.0103844
-0.0394305
-0.039493
-0.0104243
-0.000223428
0.00827805
0.0153609
0.0212641
0.0405089
0.0333546
0.0247706
0.0144696
0.00210792
-0.0331201
-0.0252411
0.0119442
0.0262842
0.0382347
0.0481935
0.0564928
0.0736018
0.0653863
0.0555278
0.0436975
0.0295039
-0.0103586
0.00802201
0.0509837
0.0630239
0.0730574
0.0814214
0.088389
0.0973858
0.091703
0.0848842
0.0767035
0.0668893
0.0329657
0.0475291
0.0727112
0.0826911
0.091007
0.0979375
0.103713
0.109366
0.102497
0.0942575
0.0843779
0.0725372
0.0438941
0.0125497
0.0335041
0.0405896
0.0465718
0.0516929
0.0561399
-0.0413815
-0.0441127
-0.0468411
-0.0495692
-0.0522995
-0.0612591
-0.149622
-0.145076
-0.144394
-0.143712
-0.143031
-0.142347
-0.243552
-0.243629
-0.243705
-0.243783
-0.24386
-0.245901
-0.345164
-0.344376
-0.344376
-0.344376
-0.344376
-0.344376
-0.444558
-0.444559
-0.444558
-0.444558
-0.444558
-0.444846
-0.544303
-0.544198
-0.544198
-0.544198
-0.544198
-0.544198
-0.543967
-0.543967
-0.543967
-0.543967
-0.543967
-0.544087
-0.643193
-0.643155
-0.643154
-0.643155
-0.643155
-0.643155
-0.642855
-0.642855
-0.642855
-0.642855
-0.642855
-0.642913
-0.642706
-0.642637
-0.642638
-0.642638
-0.642637
-0.642638
-0.642519
-0.642519
-0.642518
-0.642518
-0.642518
-0.642581
-0.64256
-0.642534
-0.642537
-0.642539
-0.642541
-0.642545
-0.642789
-0.642782
-0.642775
-0.642767
-0.642754
-0.642678
-0.642776
-0.642873
-0.642882
-0.642894
-0.642914
-0.642913
-0.642967
-0.642975
-0.642964
-0.642966
-0.642964
-0.642934
-0.643448
-0.643502
-0.643508
-0.643504
-0.643504
-0.643504
-0.64458
-0.644585
-0.644576
-0.644587
-0.644577
-0.6444
-0.645849
-0.646236
-0.64624
-0.646229
-0.646238
-0.646233
-0.64847
-0.648472
-0.648477
-0.64848
-0.648476
-0.647822
-0.65021
-0.651161
-0.651166
-0.651161
-0.651154
-0.651158
-0.653661
-0.653662
-0.653669
-0.653674
-0.653676
-0.652515
-0.653224
-0.654542
-0.654517
-0.654509
-0.654487
-0.654483
-0.548959
-0.549031
-0.549111
-0.549203
-0.549316
-0.549084
-0.445064
-0.443227
-0.442658
-0.442182
-0.441786
-0.441462
-0.332422
-0.333575
-0.334926
-0.336563
-0.338529
-0.343587
-0.247311
-0.235391
-0.230352
-0.226149
-0.22263
-0.219724
-0.125711
-0.130368
-0.135953
-0.142655
-0.150692
-0.170157
-0.126783
-0.0995961
-0.0890907
-0.0803315
-0.0730296
-0.0669439
-0.0553628
-0.0619302
-0.0698189
-0.0792761
-0.0906241
-0.121107
-0.102543
-0.0664913
-0.0549496
-0.0453253
-0.0373044
-0.0306149
-0.0307615
-0.0374141
-0.0453968
-0.0549728
-0.0664623
-0.101796
-0.10168
-0.0665628
-0.0550732
-0.045495
-0.0375117
-0.03086
-0.0309352
-0.0375877
-0.0455723
-0.0551503
-0.0666437
-0.101733
-0.101822
-0.0667053
-0.055207
-0.0456288
-0.0376414
-0.0309865
-0.0310205
-0.0376752
-0.0456648
-0.055248
-0.0667512
-0.101892
-0.0677676
-0.0359608
-0.0259067
-0.0175291
-0.0105493
-0.00473043
-0.00474564
-0.0105679
-0.0175497
-0.0259326
-0.0359866
-0.0678103
-0.0395313
-0.0104482
-0.000245044
0.00825444
0.0153421
0.0212446
0.0404925
0.0333362
0.024751
0.0144482
0.00208406
-0.0331605
-0.0252775
0.0119244
0.026266
0.0382171
0.0481778
0.056475
0.0735868
0.0653717
0.0555133
0.0436833
0.0294902
-0.0103864
0.00800712
0.0509769
0.0630149
0.0730481
0.0814119
0.0883773
0.0973814
0.0916985
0.0848823
0.0767032
0.0668882
0.0329664
0.0475329
0.0727099
0.0826906
0.0910072
0.0979359
0.103711
0.109367
0.102497
0.0942572
0.0843774
0.0725361
0.0439061
0.0125727
0.0335383
0.0406299
0.0466157
0.0517381
0.056187
-0.0413669
-0.044096
-0.0468239
-0.0495543
-0.0522852
-0.0612442
-0.14963
-0.145092
-0.14441
-0.143726
-0.143043
-0.142362
-0.243599
-0.243675
-0.243752
-0.24383
-0.243906
-0.245939
-0.345238
-0.344459
-0.344459
-0.344459
-0.344459
-0.344459
-0.444698
-0.444698
-0.444698
-0.444698
-0.444698
-0.444975
-0.544537
-0.54445
-0.54445
-0.54445
-0.54445
-0.54445
-0.644033
-0.644033
-0.644033
-0.644033
-0.644033
-0.644006
-0.643557
-0.643547
-0.643547
-0.643547
-0.643547
-0.643547
-0.74288
-0.74288
-0.74288
-0.74288
-0.74288
-0.742806
-0.742158
-0.742179
-0.742179
-0.742179
-0.742179
-0.742179
-0.741692
-0.741692
-0.741692
-0.741692
-0.741692
-0.741707
-0.741417
-0.741383
-0.741383
-0.741383
-0.741383
-0.741383
-0.741217
-0.741217
-0.741217
-0.741217
-0.741217
-0.741257
-0.741214
-0.741185
-0.741186
-0.741186
-0.741188
-0.741188
-0.741306
-0.741305
-0.741305
-0.741305
-0.741305
-0.741288
-0.741421
-0.741463
-0.741464
-0.741466
-0.741469
-0.74147
-0.741756
-0.741756
-0.741755
-0.741754
-0.741754
-0.741703
-0.742328
-0.742451
-0.742448
-0.742444
-0.742453
-0.742448
-0.743709
-0.743703
-0.743703
-0.743699
-0.743709
-0.743431
-0.745146
-0.745662
-0.745656
-0.745668
-0.745659
-0.745665
-0.74845
-0.748449
-0.748452
-0.748444
-0.748447
-0.747593
-0.750736
-0.75202
-0.752018
-0.752018
-0.752019
-0.75202
-0.755825
-0.755838
-0.755821
-0.755834
-0.755831
-0.754145
-0.757006
-0.758301
-0.758302
-0.758288
-0.758303
-0.758288
-0.752349
-0.752354
-0.752353
-0.752369
-0.75237
-0.750911
-0.650126
-0.651439
-0.651383
-0.651349
-0.651306
-0.651288
-0.546535
-0.546709
-0.546887
-0.547106
-0.547379
-0.54757
-0.444603
-0.441804
-0.44073
-0.439832
-0.439081
-0.438468
-0.328995
-0.330803
-0.33296
-0.33556
-0.33867
-0.345486
-0.255376
-0.239733
-0.233221
-0.227792
-0.223261
-0.219492
-0.140958
-0.14684
-0.153883
-0.162345
-0.172481
-0.201286
-0.161032
-0.133953
-0.123861
-0.115443
-0.108423
-0.102564
-0.0845283
-0.0909569
-0.0986653
-0.107911
-0.118997
-0.153278
-0.152027
-0.118421
-0.107525
-0.098439
-0.0908677
-0.0845554
-0.055702
-0.062118
-0.069825
-0.0790676
-0.090157
-0.119902
-0.119718
-0.0901935
-0.0791321
-0.0699128
-0.0622302
-0.055829
-0.0559234
-0.0623231
-0.0700014
-0.079218
-0.0902745
-0.119779
-0.119867
-0.0903449
-0.0792852
-0.0700663
-0.0623833
-0.055984
-0.0560203
-0.0624217
-0.0701074
-0.0793312
-0.0903958
-0.119937
-0.11998
-0.0904253
-0.0793596
-0.0701316
-0.0624457
-0.0560391
-0.0310396
-0.0376942
-0.0456861
-0.0552719
-0.0667798
-0.101938
-0.101965
-0.0667934
-0.0552852
-0.0456994
-0.0377076
-0.0310476
-0.00475838
-0.0105763
-0.0175612
-0.0259441
-0.0360003
-0.0678367
-0.0395534
-0.0104609
-0.000255932
0.00824576
0.0153311
0.0212367
0.0404842
0.0333293
0.0247408
0.0144373
0.00207208
-0.0331835
-0.0252962
0.0119162
0.0262588
0.0382091
0.0481703
0.0564695
0.0735843
0.0653691
0.055509
0.043683
0.0294889
-0.0103949
0.00800814
0.0509797
0.0630175
0.073048
0.08141
0.0883771
0.0973815
0.0917006
0.0848863
0.0767083
0.0668936
0.0329758
0.0475402
0.0727134
0.0826942
0.0910095
0.0979388
0.103712
0.109367
0.102496
0.094258
0.0843796
0.0725385
0.0439131
0.0125859
0.0335473
0.0406376
0.0466245
0.051744
0.0561907
-0.0413438
-0.0440726
-0.0468014
-0.0495318
-0.0522637
-0.0612198
-0.149617
-0.145081
-0.144399
-0.143715
-0.143031
-0.142349
-0.243613
-0.243689
-0.243768
-0.243846
-0.243922
-0.24595
-0.345287
-0.344513
-0.344513
-0.344513
-0.344513
-0.344513
-0.44482
-0.44482
-0.44482
-0.44482
-0.44482
-0.445088
-0.544781
-0.544717
-0.544717
-0.544717
-0.544717
-0.544717
-0.644589
-0.644589
-0.644589
-0.644589
-0.644589
-0.644512
-0.744676
-0.744941
-0.744941
-0.744941
-0.744941
-0.744941
-0.74382
-0.74382
-0.74382
-0.74382
-0.74382
-0.743662
-0.843838
-0.844193
-0.844193
-0.844193
-0.844193
-0.844193
-0.84245
-0.84245
-0.84245
-0.84245
-0.84245
-0.842262
-0.841132
-0.841213
-0.841213
-0.841213
-0.841213
-0.841213
-0.840415
-0.840415
-0.840414
-0.840414
-0.840415
-0.840394
-0.839953
-0.839942
-0.839942
-0.839942
-0.839942
-0.839942
-0.839692
-0.839692
-0.839692
-0.839692
-0.839692
-0.839717
-0.83963
-0.839598
-0.839598
-0.839598
-0.839596
-0.839595
-0.83962
-0.839624
-0.839629
-0.839632
-0.839638
-0.839654
-0.839785
-0.839789
-0.839788
-0.839781
-0.839778
-0.839775
-0.840145
-0.84015
-0.840141
-0.840146
-0.840147
-0.840099
-0.840724
-0.840857
-0.840851
-0.840854
-0.840859
-0.840854
-0.84209
-0.84209
-0.842098
-0.842086
-0.842093
-0.841807
-0.843514
-0.844038
-0.844038
-0.844039
-0.84404
-0.844035
-0.846883
-0.846897
-0.846882
-0.846889
-0.846891
-0.846006
-0.849272
-0.850677
-0.850668
-0.850671
-0.850679
-0.850672
-0.854986
-0.854976
-0.854981
-0.854972
-0.854982
-0.852834
-0.856018
-0.858654
-0.858651
-0.858651
-0.85865
-0.858652
-0.859239
-0.859244
-0.85924
-0.859243
-0.859239
-0.858011
-0.901196
-0.901608
-0.901596
-0.901587
-0.901577
-0.90157
-0.925075
-0.933757
-0.940995
-0.947029
-0.952058
-0.952055
-0.947028
-0.940998
-0.933765
-0.925088
-0.925099
-0.933776
-0.94101
-0.947033
-0.952049
-0.95205
-0.947028
-0.941008
-0.93378
-0.925116
-0.92513
-0.933791
-0.941016
-0.947022
-0.952041
-0.952189
-0.947025
-0.940835
-0.933401
-0.924482
-0.925693
-0.934395
-0.941651
-0.94769
-0.952727
-0.909912
-0.903478
-0.895757
-0.886491
-0.87537
-0.848784
-0.80506
-0.838024
-0.85159
-0.862896
-0.872317
-0.880165
-0.880012
-0.871998
-0.862375
-0.850829
-0.836972
-0.837519
-0.851189
-0.86258
-0.872073
-0.879981
-0.879995
-0.872084
-0.862588
-0.851192
-0.837515
-0.837515
-0.851198
-0.862595
-0.872092
-0.880007
-0.880025
-0.872104
-0.862602
-0.851197
-0.837515
-0.837513
-0.851198
-0.862604
-0.87211
-0.880028
-0.865296
-0.856806
-0.846618
-0.834391
-0.819718
-0.819719
-0.834388
-0.846613
-0.8568
-0.865288
-0.865279
-0.856792
-0.846607
-0.834385
-0.819719
-0.819716
-0.83438
-0.8466
-0.85678
-0.865266
-0.86525
-0.85677
-0.846591
-0.834375
-0.819715
-0.818233
-0.833325
-0.845901
-0.856378
-0.865105
-0.865059
-0.856226
-0.845625
-0.832901
-0.81763
-0.7824
-0.782335
-0.782407
-0.782392
-0.782373
-0.782355
-0.782351
-0.718829
-0.718886
-0.718932
-0.719001
-0.719079
-0.717985
-0.63645
-0.63685
-0.636474
-0.636175
-0.635906
-0.635698
-0.536314
-0.537027
-0.537857
-0.538881
-0.540088
-0.542428
-0.446161
-0.439735
-0.436576
-0.433951
-0.431745
-0.42992
-0.321618
-0.325325
-0.329757
-0.335085
-0.341469
-0.356623
-0.302159
-0.273989
-0.264386
-0.256386
-0.24971
-0.244149
-0.204076
-0.209657
-0.216366
-0.224408
-0.234044
-0.260244
-0.222135
-0.195119
-0.185134
-0.176805
-0.169865
-0.164077
-0.15027
-0.156532
-0.164039
-0.173045
-0.18385
-0.214788
-0.191917
-0.153458
-0.141737
-0.131964
-0.123818
-0.117027
-0.11678
-0.123467
-0.131483
-0.141105
-0.152648
-0.190284
-0.18991
-0.152595
-0.141086
-0.131493
-0.123504
-0.116838
-0.0846739
-0.0909722
-0.0985333
-0.107606
-0.118488
-0.151843
-0.151887
-0.118569
-0.107691
-0.0986251
-0.0910691
-0.0847775
-0.0848427
-0.0911375
-0.0986959
-0.107765
-0.11865
-0.151982
-0.152057
-0.118704
-0.107814
-0.0987419
-0.0911811
-0.0848842
-0.0849044
-0.091204
-0.0987704
-0.107842
-0.118736
-0.152105
-0.152135
-0.118755
-0.10786
-0.0987866
-0.0912181
-0.084915
-0.0560502
-0.0624596
-0.0701477
-0.0793758
-0.0904433
-0.120007
-0.120022
-0.0904534
-0.0793824
-0.0701558
-0.0624653
-0.056056
-0.0310537
-0.0377136
-0.0457055
-0.0552958
-0.066802
-0.10198
-0.0678475
-0.0360079
-0.0259493
-0.0175691
-0.0105816
-0.00476371
0.0212312
0.0153255
0.00824019
-0.000263571
-0.010467
-0.039564
-0.0331947
0.00206644
0.0144317
0.0247352
0.0333256
0.0404812
0.0564712
0.0481679
0.038207
0.0262584
0.0119158
-0.0253027
-0.0103942
0.0294942
0.0436883
0.0555136
0.0653695
0.0735848
0.0883769
0.0814121
0.0730528
0.0630225
0.0509854
0.00801418
0.0329845
0.0669002
0.0767113
0.0848886
0.0917037
0.0973817
0.103713
0.0979391
0.0910089
0.0826959
0.0727187
0.0475481
0.0439229
0.0725438
0.0843827
0.0942585
0.102496
0.109366
0.0562026
0.0517565
0.0466362
0.0406501
0.0335604
0.0126012
-0.0612002
-0.0522462
-0.0495152
-0.0467863
-0.0440551
-0.0413252
-0.142337
-0.143019
-0.143702
-0.144385
-0.145068
-0.149603
-0.245954
-0.243926
-0.243849
-0.243771
-0.243694
-0.243617
-0.344551
-0.344551
-0.344551
-0.344551
-0.344551
-0.345321
-0.44519
-0.444929
-0.444929
-0.444929
-0.444929
-0.444929
-0.544974
-0.544974
-0.544974
-0.544974
-0.544974
-0.545016
-0.645018
-0.645149
-0.645149
-0.645149
-0.645149
-0.645149
-0.746111
-0.746111
-0.746111
-0.746111
-0.746111
-0.745722
-0.84785
-0.848722
-0.848722
-0.848722
-0.848722
-0.848722
-0.846377
-0.846377
-0.846377
-0.846377
-0.846377
-0.845784
-0.948324
-0.949502
-0.949502
-0.949502
-0.949502
-0.949502
-0.945471
-0.94547
-0.945471
-0.94547
-0.945471
-0.944788
-0.942061
-0.942415
-0.942415
-0.942415
-0.942415
-0.942415
-0.940369
-0.940369
-0.940369
-0.940369
-0.940369
-0.940207
-0.939056
-0.939115
-0.939115
-0.939115
-0.939115
-0.939115
-0.938406
-0.938406
-0.938406
-0.938406
-0.938406
-0.938398
-0.938056
-0.93804
-0.93804
-0.93804
-0.938039
-0.938039
-0.937872
-0.937875
-0.937876
-0.937876
-0.937878
-0.937907
-0.937879
-0.937848
-0.937841
-0.937836
-0.93783
-0.937825
-0.937937
-0.937941
-0.937945
-0.937951
-0.937963
-0.937973
-0.938248
-0.938284
-0.938278
-0.938278
-0.938278
-0.938278
-0.938873
-0.938873
-0.938873
-0.938876
-0.938873
-0.938768
-0.939664
-0.93989
-0.9399
-0.939889
-0.939898
-0.939893
-0.94152
-0.941514
-0.941514
-0.941517
-0.941517
-0.94109
-0.943206
-0.943936
-0.943937
-0.943939
-0.943926
-0.943942
-0.947222
-0.947217
-0.947227
-0.947228
-0.947218
-0.945999
-0.949071
-0.951224
-0.95123
-0.951232
-0.951222
-0.951225
-0.955654
-0.95564
-0.955653
-0.955649
-0.955646
-0.951597
-0.967683
-0.985595
-0.991733
-0.996848
-1.00111
-1.00466
-1.0041
-1.0041
-1.0041
-1.0041
-1.00411
-1.0006
-1.00061
-1.00061
-1.00061
-1.00062
-0.996421
-0.996416
-0.996407
-0.996402
-0.996392
-0.991341
-0.991354
-0.991364
-0.991384
-0.991401
-0.985363
-0.985335
-0.985312
-0.985299
-0.985278
-0.969892
-0.969894
-0.969913
-0.969926
-0.96994
-1.05308
-1.05306
-1.05305
-1.05304
-1.05302
-1.05703
-1.05704
-1.05706
-1.05709
-1.05712
-1.05956
-1.05954
-1.05953
-1.05951
-1.0595
-1.06156
-1.06157
-1.06158
-1.06159
-1.0616
-1.0633
-1.0633
-1.06329
-1.06328
-1.06328
-1.06471
-1.06471
-1.06471
-1.06472
-1.06471
-1.06517
-1.06371
-1.06195
-1.05984
-1.05731
-1.05275
-1.05249
-1.05789
-1.06046
-1.06261
-1.06439
-1.06588
-1.00575
-1.00227
-0.998095
-0.993084
-0.987067
-0.965377
-0.902001
-0.904911
-0.929481
-0.937238
-0.943705
-0.94909
-0.953571
-0.910384
-0.904616
-0.897694
-0.88939
-0.879426
-0.851436
-0.807339
-0.84116
-0.853824
-0.864379
-0.873169
-0.880498
-0.865271
-0.856755
-0.846534
-0.83427
-0.819549
-0.78441
-0.783325
-0.818587
-0.833626
-0.846156
-0.856597
-0.865293
-0.865125
-0.856112
-0.845292
-0.832304
-0.816717
-0.781272
-0.780833
-0.817158
-0.832627
-0.845516
-0.856252
-0.865199
-0.865342
-0.865354
-0.865364
-0.86537
-0.865376
-0.856627
-0.856622
-0.856618
-0.856612
-0.856603
-0.846118
-0.846121
-0.846123
-0.846123
-0.846125
-0.833519
-0.833521
-0.833527
-0.833529
-0.833531
-0.81843
-0.818419
-0.818412
-0.818401
-0.818394
-0.780358
-0.780388
-0.780423
-0.780476
-0.780528
-0.716453
-0.716182
-0.715953
-0.715766
-0.715603
-0.630724
-0.631253
-0.631895
-0.632645
-0.633566
-0.634421
-0.54165
-0.537039
-0.534651
-0.532655
-0.531007
-0.52961
-0.420802
-0.42373
-0.427265
-0.431509
-0.436584
-0.447953
-0.370542
-0.352048
-0.34455
-0.338305
-0.333091
-0.328741
-0.270592
-0.275933
-0.282343
-0.290031
-0.299255
-0.325123
-0.317661
-0.287999
-0.278398
-0.270392
-0.26372
-0.258159
-0.220274
-0.22655
-0.234081
-0.243117
-0.253952
-0.292169
-0.251771
-0.218287
-0.207725
-0.198915
-0.191567
-0.185445
-0.184868
-0.190844
-0.198008
-0.206607
-0.216917
-0.249828
-0.212895
-0.182756
-0.172259
-0.163515
-0.15622
-0.150144
-0.150114
-0.156159
-0.163407
-0.1721
-0.182538
-0.212398
-0.212336
-0.182539
-0.172118
-0.163435
-0.1562
-0.150163
-0.116923
-0.123578
-0.131564
-0.141146
-0.152647
-0.189885
-0.18996
-0.152714
-0.141212
-0.131627
-0.123642
-0.116984
-0.117024
-0.123687
-0.131673
-0.141263
-0.152765
-0.19003
-0.190081
-0.152799
-0.141294
-0.131702
-0.12371
-0.117051
-0.117064
-0.123723
-0.131719
-0.14131
-0.15282
-0.190112
-0.190129
-0.152831
-0.141319
-0.131725
-0.12373
-0.11707
-0.0849205
-0.0912238
-0.0987918
-0.107871
-0.118764
-0.15215
-0.152161
-0.118769
-0.107874
-0.0987919
-0.0912262
-0.0849212
-0.0560564
-0.0624658
-0.0701585
-0.0793858
-0.0904588
-0.120031
-0.101988
-0.0668069
-0.0553006
-0.0457079
-0.0377134
-0.0310567
-0.00476289
-0.0105879
-0.0175717
-0.0259546
-0.0360134
-0.0678552
-0.03957
-0.0104703
-0.000266148
0.00823546
0.0153256
0.021228
0.0404814
0.0333238
0.0247347
0.0144318
0.002065
-0.033199
-0.0253031
0.0119168
0.0262602
0.0382096
0.0481687
0.0564735
0.0735855
0.0653722
0.0555189
0.0436917
0.0294989
-0.010392
0.00801799
0.0509907
0.0630259
0.0730575
0.0814147
0.088379
0.0973825
0.0917054
0.0848895
0.0767131
0.0669035
0.0329913
0.0475556
0.0727208
0.0826969
0.0910111
0.0979399
0.103713
0.109366
0.102497
0.0942605
0.0843846
0.0725458
0.0439284
0.0126081
0.0335619
0.0406515
0.0466373
0.051757
0.0562041
-0.0413163
-0.0440448
-0.0467751
-0.0495053
-0.0522349
-0.0611867
-0.149595
-0.14506
-0.144375
-0.143692
-0.14301
-0.142327
-0.24362
-0.243697
-0.243773
-0.243851
-0.243929
-0.245956
-0.345349
-0.344581
-0.344581
-0.344581
-0.344581
-0.344581
-0.44502
-0.44502
-0.44502
-0.44502
-0.44502
-0.445271
-0.545209
-0.545185
-0.545185
-0.545185
-0.545185
-0.545185
-0.645622
-0.645622
-0.645622
-0.645622
-0.645622
-0.645446
-0.746618
-0.747118
-0.747118
-0.747118
-0.747118
-0.747118
-0.850789
-0.850789
-0.850789
-0.850789
-0.850789
-0.84965
-0.956303
-0.957477
-0.957501
-0.957524
-0.957548
-0.957573
-0.953898
-0.953898
-0.953898
-0.953898
-0.953898
-0.952399
-1.06159
-1.06195
-1.06201
-1.06208
-1.06214
-1.06221
-1.05447
-1.05447
-1.05447
-1.05447
-1.05447
-1.05328
-1.04648
-1.04765
-1.04765
-1.04765
-1.04765
-1.04765
-1.04273
-1.04273
-1.04273
-1.04273
-1.04273
-1.04215
-1.03936
-1.03962
-1.03962
-1.03962
-1.03962
-1.03962
-1.03781
-1.03781
-1.03781
-1.03781
-1.03781
-1.03771
-1.03679
-1.03682
-1.03682
-1.03682
-1.03682
-1.03682
-1.03632
-1.03632
-1.03632
-1.03632
-1.03632
-1.03632
-1.03611
-1.03609
-1.03609
-1.03608
-1.03608
-1.03608
-1.03598
-1.03599
-1.03599
-1.03599
-1.036
-1.03603
-1.03607
-1.03604
-1.03604
-1.03603
-1.03603
-1.03603
-1.03626
-1.03626
-1.03626
-1.03626
-1.03625
-1.03625
-1.03658
-1.03664
-1.03664
-1.03664
-1.03664
-1.03664
-1.0373
-1.0373
-1.03731
-1.0373
-1.03731
-1.03717
-1.03813
-1.03838
-1.03838
-1.03837
-1.03838
-1.03837
-1.03999
-1.04
-1.03999
-1.03999
-1.03999
-1.03957
-1.04152
-1.0422
-1.0422
-1.0422
-1.0422
-1.0422
-1.04498
-1.04498
-1.04498
-1.04498
-1.04498
-1.04384
-1.04722
-1.04852
-1.04852
-1.04852
-1.04853
-1.04851
-1.13706
-1.13705
-1.13706
-1.13706
-1.13706
-1.1381
-1.13576
-1.13332
-1.13222
-1.1313
-1.13054
-1.1299
-1.12961
-1.12959
-1.12961
-1.12959
-1.1296
-1.1302
-1.1302
-1.13021
-1.13021
-1.13022
-1.13096
-1.13094
-1.13094
-1.13093
-1.13092
-1.13179
-1.1318
-1.13181
-1.13183
-1.13185
-1.13291
-1.13289
-1.13286
-1.13284
-1.13283
-1.13494
-1.13494
-1.13496
-1.13497
-1.13499
-1.22014
-1.22012
-1.22011
-1.2201
-1.22009
-1.20669
-1.20671
-1.20674
-1.20675
-1.20678
-1.20236
-1.20234
-1.20233
-1.20231
-1.2023
-1.19864
-1.19865
-1.19865
-1.19866
-1.19868
-1.1956
-1.1956
-1.1956
-1.19559
-1.19559
-1.19304
-1.19304
-1.19304
-1.19305
-1.19305
-1.19332
-1.19592
-1.19902
-1.20275
-1.20722
-1.22253
-1.22525
-1.20709
-1.20276
-1.19915
-1.19615
-1.19364
-1.13047
-1.13112
-1.1319
-1.13283
-1.13395
-1.13686
-1.13742
-1.1342
-1.13312
-1.13222
-1.13147
-1.13084
-1.06637
-1.06494
-1.06323
-1.06117
-1.0587
-1.05288
-0.965327
-0.989181
-0.994791
-0.999461
-1.00335
-1.0066
-1.00705
-1.00391
-1.00014
-0.995607
-0.990173
-0.967146
-0.907491
-0.931556
-0.938837
-0.944904
-0.949958
-0.954165
-0.910583
-0.905133
-0.898595
-0.890746
-0.881332
-0.852491
-0.807829
-0.842667
-0.854919
-0.865127
-0.873635
-0.880724
-0.865382
-0.857035
-0.847016
-0.834994
-0.820567
-0.785359
-0.78427
-0.819618
-0.834353
-0.846629
-0.856859
-0.865381
-0.880722
-0.873287
-0.864372
-0.853667
-0.840821
-0.805538
-0.805017
-0.839319
-0.852597
-0.863657
-0.872874
-0.880553
-0.880312
-0.872116
-0.862278
-0.850471
-0.836298
-0.802512
-0.79876
-0.796096
-0.795938
-0.795801
-0.795697
-0.795601
-0.834184
-0.84899
-0.861329
-0.871613
-0.880178
-0.880176
-0.871617
-0.861339
-0.849005
-0.834207
-0.834231
-0.84902
-0.861348
-0.871616
-0.88017
-0.880163
-0.871616
-0.861356
-0.84904
-0.834263
-0.834296
-0.849063
-0.861365
-0.871618
-0.880154
-0.880199
-0.871698
-0.861492
-0.849244
-0.834543
-0.871366
-0.883652
-0.893896
-0.902424
-0.909532
-0.909208
-0.902072
-0.893517
-0.883238
-0.870911
-0.870857
-0.883205
-0.893498
-0.902069
-0.90921
-0.909209
-0.90206
-0.893473
-0.883179
-0.870817
-0.870778
-0.883155
-0.89346
-0.902054
-0.90921
-0.909212
-0.902047
-0.893452
-0.883135
-0.870753
-0.837142
-0.837266
-0.83741
-0.837579
-0.837787
-0.840825