/*--------------------------------*- C++ -*----------------------------------*\
| =========                 |                                                 |
| \\      /  F ield         | OpenFOAM: The Open Source CFD Toolbox           |
|  \\    /   O peration     | Version:  2212                                  |
|   \\  /    A nd           | Website:  www.openfoam.com                      |
|    \\/     M anipulation  |                                                 |
\*---------------------------------------------------------------------------*/
FoamFile
{
    version     2.0;
    format      ascii;
    arch        "LSB;label=32;scalar=64";
    class       volScalarField;
    location    "70";
    object      T;
}
// * * * * * * * * * * * * * * * * * * * * * * * * * * * * * * * * * * * * * //

dimensions      [0 0 0 1 0 0 0];

internalField   nonuniform List<scalar> 
248319
(
300.001
300.001
300
300
300
300
300
300
300
300
300
300
300.001
300.001
300
300
300
300
300
300
300
300
300
300
300.001
300.001
300
300
300
300
300
300
300
300
300
300
300
300.001
300
300
300
300
300
300
300
300
300
300
300.001
300.001
300
300
300
300
300
300
300
300
300
300
300.001
300.001
300
300
300
300
300
300
300
300
300
300
300.002
300.001
300
300
300
300
300
300
300
300
300
300
300.001
300.001
300
300
300
300
300
300
300
300
300
300
300.001
300.001
300
300
300
300
300
300
300
300
300
300
300.001
300.001
300
300
300
300
300
300
300
300
300
300
300.001
300.001
300
300
300
300
300
300
300
300
300
300
300.001
300.001
300
300
300
300
300
300
300
300
300
300
300.001
300.004
300.002
300.001
300
300
300
300
300
300
300.001
300.001
300.003
300.006
300.002
300.001
300.001
300
300
300
300
300
300.001
300.001
300.004
300.002
300.001
300
300
300
300
300
300
300
300
300
300.002
300.002
300.001
300
300
300
300
300
300
300
300.001
300.001
300.002
300.001
300.001
300
300
300
300
300
300
300
300
300
300.001
300.001
300
300
300
300
300
300
300
300
300
300
300.001
300
300
300
300
300
300
300
300
300
300
300
300.001
300.001
300
300
300
300
300
300
300
300
300
300
300.001
300.003
300.001
300
300
300
300
300
300
300
300
300.001
300.002
300.002
300.001
300
300
300
300
300
300
300
300
300
300.002
300.006
300.002
300.001
300
300
300
300.001
300.001
300.001
300.002
300.004
300.012
300.008
300.003
300.002
300.001
300.001
300
300.001
300.001
300.001
300.002
300.004
300.012
300.008
300.002
300.001
300.001
300
300
300
300
300.001
300.001
300.002
300.006
300.003
300.001
300
300
300
300
300
300
300
300
300.001
300.002
300.002
300.001
300
300
300
300
300
300
300
300.001
300.001
300.002
300.002
300.001
300.001
300
300
300
300
300
300
300.001
300.001
300.001
300.001
300.001
300
300
300
300
300
300
300
300
300
300.001
300.001
300
300
300
300
300
300
300
300
300
300
300
300
300
300
300
300
300
300
300
300
300
300
300.001
300.001
300
300
300
300
300
300
300
300
300
300
300.001
300.003
300.001
300
300
300
300
300
300
300.001
300.001
300.003
300.008
300.006
300.002
300.001
300.001
300
300
300
300
300.001
300.001
300.002
300.005
300.003
300.001
300.001
300
300
300
300
300
300
300
300.001
300.003
300.008
300.002
300.001
300.001
300
300
300.001
300.001
300.001
300.002
300.004
300.017
300.028
300.008
300.004
300.002
300.002
300.002
300.001
300.001
300.002
300.003
300.006
300.019
300.027
300.009
300.005
300.003
300.002
300.002
300.001
300.001
300.002
300.003
300.006
300.016
300.01
300.003
300.002
300.001
300.001
300.001
300
300
300.001
300.001
300.002
300.007
300.004
300.001
300.001
300
300
300
300
300
300
300
300.001
300.003
300.002
300.001
300.001
300
300
300
300
300
300.001
300.001
300.001
300.002
300.002
300.001
300.001
300.001
300
300
300
300
300
300.001
300.001
300.002
300.001
300.001
300.001
300
300
300
300
300
300
300
300.001
300.001
300.001
300
300
300
300
300
300
300
300
300
300
300.001
300.001
300
300
300
300
300
300
300
300
300
300
300
300
300
300
300
300
300
300
300
300
300
300
300
300.001
300
300
300
300
300
300
300
300
300
300
300.001
300.003
300.001
300
300
300
300
300
300
300.001
300.001
300.003
300.008
300.026
300.011
300.005
300.003
300.002
300.002
300.002
300.002
300.003
300.005
300.01
300.021
300.016
300.008
300.004
300.003
300.002
300.002
300.002
300.002
300.002
300.004
300.006
300.011
300.006
300.003
300.002
300.001
300.001
300.001
300.001
300.001
300.001
300.001
300.002
300.004
300.011
300.004
300.002
300.001
300.001
300.001
300.002
300.002
300.003
300.004
300.007
300.021
300.034
300.011
300.006
300.004
300.003
300.003
300.004
300.005
300.006
300.01
300.017
300.05
300.04
300.012
300.007
300.004
300.003
300.003
300.004
300.005
300.007
300.01
300.018
300.055
300.036
300.013
300.007
300.005
300.003
300.003
300.002
300.002
300.003
300.005
300.008
300.019
300.012
300.004
300.002
300.001
300.001
300.001
300
300.001
300.001
300.001
300.003
300.009
300.005
300.002
300.001
300
300
300
300
300
300
300
300.001
300.003
300.003
300.001
300.001
300
300
300
300
300
300.001
300.001
300.002
300.003
300.002
300.001
300.001
300.001
300
300
300
300
300.001
300.001
300.001
300.002
300.001
300.001
300.001
300
300
300
300
300
300
300
300.001
300.001
300.001
300.001
300
300
300
300
300
300
300
300
300
300.001
300.001
300
300
300
300
300
300
300
300
300
300
300.001
300
300
300
300
300
300
300
300
300
300
300
300
300
300
300
300
300
300
300
300
300
300
300
300
300.001
300
300
300
300
300
300
300
300
300
300
300.001
300.003
300.001
300
300
300
300
300
300
300
300.001
300.003
300.01
300.031
300.012
300.006
300.003
300.002
300.002
300.01
300.011
300.014
300.023
300.04
300.081
300.062
300.032
300.018
300.011
300.008
300.007
300.006
300.007
300.01
300.015
300.026
300.048
300.035
300.02
300.012
300.008
300.006
300.005
300.004
300.005
300.006
300.009
300.014
300.024
300.019
300.009
300.006
300.004
300.003
300.003
300.002
300.002
300.003
300.005
300.007
300.011
300.023
300.011
300.007
300.005
300.003
300.003
300.005
300.006
300.008
300.012
300.02
300.041
300.064
300.029
300.018
300.011
300.008
300.007
300.01
300.011
300.015
300.024
300.04
300.089
300.116
300.051
300.031
300.02
300.014
300.013
300.006
300.007
300.009
300.014
300.023
300.066
300.085
300.031
300.019
300.012
300.009
300.008
300.006
300.007
300.01
300.015
300.025
300.07
300.046
300.019
300.011
300.007
300.005
300.004
300.003
300.003
300.004
300.007
300.011
300.023
300.014
300.005
300.003
300.002
300.001
300.001
300.001
300.001
300.001
300.002
300.003
300.01
300.006
300.002
300.001
300.001
300
300
300
300
300
300.001
300.001
300.004
300.003
300.002
300.001
300.001
300
300
300
300.001
300.001
300.001
300.002
300.003
300.003
300.002
300.001
300.001
300.001
300
300
300
300.001
300.001
300.001
300.002
300.001
300.001
300.001
300
300
300
300
300
300
300
300.001
300.001
300.001
300
300
300
300
300
300
300
300
300
300
300.001
300
300
300
300
300
300
300
300
300
300
300
300
300
300
300
300
300
300
300
300
300
300
300
300
300
300
300
300
300
300
300
300
300
300
300
300
300
300
300
300
300
300
300
300
300
300
300
300
300.001
300
300
300
300
300
300
300
300
300
300
300.001
300.004
300.001
300
300
300
300
300
300
300.001
300.001
300.003
300.011
300.038
300.015
300.008
300.005
300.004
300.004
300.014
300.015
300.02
300.031
300.053
300.102
300.189
300.108
300.066
300.042
300.031
300.028
300.02
300.022
300.03
300.048
300.08
300.141
300.105
300.06
300.036
300.023
300.017
300.015
300.013
300.014
300.019
300.029
300.046
300.077
300.053
300.033
300.022
300.015
300.011
300.01
300.007
300.008
300.01
300.015
300.022
300.033
300.025
300.01
300.006
300.004
300.004
300.003
300.005
300.005
300.007
300.01
300.016
300.041
300.035
300.016
300.01
300.006
300.005
300.004
300.007
300.008
300.01
300.016
300.025
300.059
300.088
300.036
300.022
300.014
300.011
300.01
300.014
300.015
300.02
300.03
300.048
300.119
300.153
300.063
300.04
300.027
300.02
300.018
300.025
300.027
300.036
300.053
300.083
300.189
300.145
300.065
300.04
300.026
300.019
300.017
300.023
300.026
300.035
300.053
300.083
300.177
300.106
300.04
300.025
300.016
300.012
300.011
300.009
300.01
300.014
300.021
300.034
300.088
300.057
300.026
300.016
300.01
300.007
300.006
300.004
300.004
300.006
300.009
300.014
300.028
300.016
300.006
300.004
300.002
300.002
300.001
300.001
300.001
300.001
300.002
300.004
300.012
300.007
300.002
300.001
300.001
300
300
300
300
300
300.001
300.001
300.005
300.004
300.002
300.001
300.001
300
300
300.001
300.001
300.001
300.002
300.002
300.004
300.003
300.002
300.001
300.001
300.001
300.001
300
300.001
300.001
300.001
300.001
300.002
300.001
300.001
300.001
300.001
300
300
300
300
300
300.001
300.001
300.001
300.001
300
300
300
300
300
300
300
300
300
300
300
300
300
300
300
300
300
300
300
300
300
300
300
300
300
300
300
300
300
300
300
300
300
300
300
300
300
300
300
300
300
300
300
300
300
300
300
300
300
300
300
300
300
300
300
300
300
300
300
300
300
300
300
300
300
300
300
300
300
300
300
300.001
300
300
300
300
300
300
300
300
300
300
300.001
300.004
300.001
300
300
300
300
300.001
300.001
300.001
300.001
300.004
300.013
300.045
300.019
300.011
300.008
300.008
300.008
300.026
300.027
300.032
300.046
300.073
300.131
300.245
300.155
300.101
300.068
300.054
300.051
300.079
300.082
300.102
300.146
300.209
300.289
300.243
300.154
300.099
300.065
300.048
300.044
300.032
300.036
300.049
300.075
300.117
300.188
300.142
300.088
300.057
300.038
300.029
300.026
300.021
300.023
300.03
300.044
300.067
300.105
300.076
300.047
300.031
300.021
300.016
300.015
300.01
300.01
300.013
300.019
300.028
300.059
300.046
300.029
300.02
300.014
300.01
300.009
300.009
300.01
300.013
300.021
300.035
300.073
300.111
300.05
300.029
300.019
300.015
300.013
300.008
300.008
300.011
300.016
300.025
300.065
300.093
300.036
300.022
300.015
300.012
300.011
300.015
300.016
300.021
300.03
300.048
300.124
300.158
300.062
300.04
300.028
300.022
300.02
300.026
300.029
300.036
300.052
300.08
300.193
300.232
300.1
300.065
300.046
300.036
300.033
300.032
300.035
300.046
300.068
300.105
300.227
300.269
300.132
300.086
300.058
300.044
300.04
300.03
300.033
300.044
300.067
300.105
300.209
300.128
300.052
300.032
300.021
300.016
300.014
300.012
300.013
300.018
300.028
300.044
300.107
300.068
300.035
300.022
300.014
300.01
300.009
300.005
300.005
300.008
300.012
300.018
300.032
300.018
300.008
300.005
300.003
300.002
300.002
300.001
300.001
300.002
300.003
300.005
300.014
300.008
300.003
300.002
300.001
300.001
300.001
300
300
300.001
300.001
300.002
300.006
300.005
300.002
300.001
300.001
300
300
300.001
300.001
300.001
300.002
300.003
300.004
300.003
300.002
300.002
300.001
300.001
300.001
300.001
300.001
300.001
300.001
300.002
300.002
300.001
300.001
300.001
300.001
300.001
300.001
300
300
300.001
300.001
300.001
300.001
300.001
300
300
300
300
300
300
300
300
300
300
300
300
300
300
300
300
300
300
300
300
300
300
300
300
300
300
300
300
300
300
300
300
300
300
300
300
300
300
300
300
300
300
300
300
300
300
300
300
300
300
300
300
300
300
300
300
300
300
300
300
300
300
300
300
300
300
300
300
300
300
300
300
300
300
300
300
300
300
300
300
300
300
300
300.001
300
300
300
300
300
300
300
300
300
300
300.002
300.005
300.001
300
300
300
300
300.002
300.002
300.001
300.001
300.004
300.015
300.053
300.023
300.015
300.013
300.014
300.015
300.044
300.043
300.045
300.061
300.093
300.16
300.292
300.188
300.124
300.089
300.083
300.088
300.181
300.132
300.115
300.148
300.207
300.281
300.316
300.224
300.186
300.289
300.653
300.895
304.42
311.214
331.215
377.535
452.527
449.021
369.389
323.445
307.227
302.807
300.947
302.947
314.148
357.224
444.619
437.149
344.255
308.058
301.148
300.322
300.271
300.689
305.197
334.757
428.567
422.375
329.879
304.184
300.643
300.346
300.571
300.894
304.628
330.468
422.606
422.292
330.213
304.594
300.908
300.581
300.56
300.538
300.555
300.823
303.998
327.912
419.834
418.283
326.214
303.357
300.573
300.365
300.285
300.582
304.18
330.982
426.074
437.379
341.163
306.829
300.977
300.326
301.145
303.066
313.953
358.279
449.541
458.267
377.21
327.681
310.036
304.715
308.306
317.178
339.848
390.628
462.708
462.125
389.619
338.238
315.447
306.803
303.812
308.945
326.291
375.894
457.368
447.579
355.909
313.126
302.845
300.983
300.318
300.931
306.403
339.279
435.202
424.335
329.783
303.977
300.581
300.295
300.387
300.577
303.188
325.231
416.884
417.277
325.927
303.602
300.844
300.613
300.572
300.361
300.256
300.199
300.242
300.509
300.911
300.101
300.101
300.123
300.172
300.24
300.326
300.273
300.193
300.134
300.092
300.069
300.062
300.048
300.053
300.07
300.103
300.152
300.22
300.174
300.118
300.081
300.056
300.042
300.038
300.03
300.033
300.042
300.061
300.09
300.134
300.107
300.057
300.038
300.027
300.022
300.02
300.021
300.023
300.031
300.044
300.065
300.098
300.064
300.027
300.018
300.013
300.01
300.01
300.011
300.012
300.015
300.022
300.034
300.093
300.089
300.035
300.022
300.015
300.011
300.01
300.015
300.017
300.021
300.031
300.051
300.131
300.178
300.067
300.042
300.028
300.022
300.02
300.019
300.02
300.027
300.04
300.068
300.155
300.204
300.084
300.05
300.033
300.025
300.023
300.029
300.031
300.04
300.06
300.1
300.256
300.311
300.117
300.072
300.048
300.037
300.034
300.042
300.045
300.059
300.087
300.14
300.368
300.427
300.168
300.104
300.069
300.053
300.049
300.041
300.044
300.056
300.08
300.122
300.27
300.314
300.147
300.097
300.067
300.052
300.048
300.049
300.054
300.072
300.107
300.163
300.312
300.244
300.131
300.084
300.055
300.041
300.037
300.018
300.02
300.027
300.041
300.065
300.152
300.127
300.057
300.036
300.024
300.017
300.015
300.012
300.013
300.019
300.029
300.045
300.08
300.036
300.023
300.015
300.01
300.007
300.006
300.002
300.003
300.004
300.006
300.01
300.02
300.016
300.006
300.003
300.002
300.001
300.001
300.001
300.001
300.001
300.002
300.004
300.01
300.007
300.002
300.001
300.001
300
300
300
300.001
300.001
300.002
300.003
300.005
300.005
300.003
300.002
300.001
300.001
300.001
300.001
300.001
300.001
300.002
300.003
300.004
300.002
300.002
300.001
300.001
300.001
300.001
300.001
300.001
300.001
300.001
300.001
300.002
300.001
300.001
300.001
300.001
300.001
300.001
300
300
300
300
300
300.001
300
300
300
300
300
300
300
300
300
300
300
300
300
300
300
300
300
300
300
300
300
300
300
300
300
300
300
300
300
300
300
300
300
300
300
300
300
300
300
300
300
300
300
300
300
300
300
300
300
300
300
300
300
300
300
300
300
300
300
300
300
300
300
300
300
300
300
300
300
300
300
300
300
300
300
300
300
300
300
300
300
300
300
300
300
300
300
300
300
300
300
300
300
300
300
300.001
300.002
300
300
300
300
300
300
300
300
300
300.001
300.006
300.017
300.004
300.002
300.002
300.002
300.003
300.022
300.02
300.017
300.017
300.024
300.058
300.18
300.104
300.068
300.053
300.053
300.055
300.104
300.097
300.1
300.135
300.205
300.319
300.329
300.357
300.767
305.479
336.392
432.99
441.779
447.662
450.13
446.397
445.569
367.568
366.821
365.678
356.46
346.404
308.813
313.394
318.015
323.384
325.982
309.146
307.141
304.102
302.443
301.171
300.311
300.535
301.217
302.546
303.383
300.782
300.626
300.319
300.197
300.227
300.312
300.352
300.423
300.626
300.715
302.56
302.405
301.931
301.973
301.312
304.97
306.839
306.069
306.807
307.022
320.483
321.375
322.282
323.6
319.407
364.034
370.466
370.104
361.646
358.195
439.636
442.801
452.36
453.901
451.14
443.77
350.522
311.943
302.399
300.631
300.35
300.631
300.634
301.533
308.796
343.441
437.58
424.428
331.484
304.762
300.902
300.591
300.61
300.548
300.807
300.839
301.388
306.585
336.494
427.831
433.25
340.496
307.579
301.542
300.875
300.826
300.759
300.814
301.329
306.319
336.637
429.88
424.261
331.476
305.075
301.296
300.925
300.848
300.926
301.015
301.496
306.073
334.972
427.871
418.898
327.582
304.05
300.923
300.644
300.597
300.362
300.383
300.583
303.147
324.47
414.434
419.242
428.918
440.88
451.355
457.426
382.478
368.371
349.367
335.021
327.28
303.583
305.49
310.977
322.035
332.484
311.264
306.529
302.247
300.794
300.536
300.28
300.276
300.707
302.366
304.336
300.487
300.349
300.205
300.186
300.247
300.236
300.164
300.115
300.092
300.088
300.061
300.067
300.091
300.134
300.194
300.272
300.216
300.15
300.104
300.071
300.053
300.048
300.041
300.045
300.059
300.085
300.12
300.169
300.131
300.092
300.065
300.046
300.036
300.032
300.019
300.02
300.025
300.035
300.052
300.108
300.141
300.055
300.034
300.023
300.018
300.017
300.017
300.018
300.024
300.036
300.058
300.143
300.137
300.064
300.037
300.024
300.018
300.016
300.021
300.023
300.031
300.047
300.082
300.185
300.131
300.048
300.03
300.021
300.017
300.016
300.02
300.022
300.027
300.039
300.062
300.171
300.211
300.074
300.046
300.032
300.026
300.024
300.025
300.027
300.034
300.05
300.081
300.224
300.271
300.096
300.06
300.041
300.032
300.03
300.035
300.038
300.049
300.071
300.112
300.318
300.364
300.131
300.083
300.057
300.044
300.041
300.047
300.051
300.065
300.095
300.152
300.409
300.452
300.174
300.108
300.072
300.056
300.051
300.057
300.062
300.081
300.123
300.2
300.484
300.542
300.235
300.141
300.092
300.069
300.063
300.056
300.061
300.079
300.114
300.173
300.357
300.358
300.198
300.129
300.085
300.064
300.057
300.046
300.051
300.069
300.104
300.161
300.281
300.178
300.079
300.05
300.033
300.024
300.022
300.02
300.022
300.03
300.046
300.071
300.149
300.092
300.056
300.037
300.024
300.017
300.015
300.008
300.009
300.013
300.019
300.028
300.04
300.022
300.012
300.008
300.005
300.003
300.003
300.002
300.002
300.003
300.004
300.007
300.018
300.011
300.004
300.002
300.001
300.001
300.001
300
300.001
300.001
300.001
300.003
300.008
300.006
300.003
300.002
300.001
300.001
300.001
300.001
300.001
300.002
300.003
300.004
300.005
300.004
300.003
300.002
300.002
300.001
300.001
300.001
300.001
300.001
300.002
300.002
300.003
300.002
300.001
300.001
300.001
300.001
300.001
300.001
300.001
300.001
300.001
300.001
300.001
300
300
300
300.001
300.001
300.001
300.001
300
300
300
300
300
300
300
300
300
300
300
300
300
300
300
300
300
300
300
300
300
300
300
300
300
300
300
300
300
300
300
300
300
300
300
300
300
300
300
300
300
300
300
300
300
300
300
300
300
300
300
300
300
300
300
300
300
300
300
300
300
300
300
300
300
300
300
300
300
300
300
300
300
300
300
300
300
300
300
300
300
300
300
300
300
300
300
300
300
300
300
300
300
300
300
300
300
300
300
300
300
300.001
300
300
300
300
300
300
300
300
300
300.001
300.002
300.006
300.001
300
300
300
300
300.004
300.004
300.002
300.002
300.005
300.019
300.059
300.023
300.017
300.019
300.025
300.028
300.065
300.062
300.058
300.071
300.106
300.186
300.331
300.214
300.149
300.114
300.111
300.119
300.134
300.126
300.125
300.172
300.237
300.344
300.506
301.998
306.709
322.5
366.63
452.031
456.891
455.392
447.884
436.057
433.654
349.111
352.739
365.39
376.04
377.771
330.523
329.014
321.844
316.978
315.157
304.834
305.386
306.485
309.92
310.663
303.486
303.339
302.108
301.906
301.762
300.627
300.603
300.479
300.545
300.565
302.106
301.294
300.651
300.598
300.573
301.436
301.737
302.591
306.098
309.392
320.144
314.146
307.084
304.703
303.897
313.172
315.055
321.942
334.035
343.067
388.505
379.018
363.941
350.072
347.244
434.455
436.131
448.056
456.082
460.301
459.411
386.131
341.325
319.125
308.865
302.282
302.208
307.404
316.085
336.153
379.484
456.123
447.107
358.374
317.441
304.595
301.406
300.691
301.049
301.732
304.961
318.217
360.009
448.028
438.489
345.4
309.688
301.878
300.931
300.96
300.899
300.875
301.294
305.857
333.906
424.825
426.871
336.857
307.143
301.794
301.24
301.267
301.086
301.165
301.96
308.391
340.924
431.071
440.448
349.069
310.724
302.36
301.256
301.136
301.029
301.153
301.929
308.379
342.684
435.366
428.307
335.434
306.457
301.867
301.344
301.209
301.369
301.54
302.231
307.9
339.947
432.621
443.715
351.138
311.515
302.975
301.811
301.551
301.023
301.158
301.976
308.837
344.725
439.017
428.003
333.608
305.426
301.125
300.702
300.643
300.38
300.249
300.179
300.176
300.255
300.322
303.116
309.458
329.398
377.154
453.727
449.2
366.684
321.214
305.912
301.902
300.654
302.273
311.527
351.135
441.955
432.527
337.803
306.1
300.855
300.274
300.282
300.578
304.068
329.975
423.982
420.081
327.454
303.707
300.649
300.402
300.435
300.82
305.151
334.35
430.762
437.429
339.738
306.242
300.831
300.307
300.333
301.297
309.093
348.463
443.288
446.602
358.824
314.736
302.955
300.782
301.825
306.057
321.867
366.097
447.367
449.222
370.878
326.435
308.36
302.594
300.323
300.27
300.19
300.183
300.258
300.406
300.339
300.246
300.173
300.118
300.089
300.082
300.079
300.088
300.121
300.177
300.251
300.337
300.27
300.194
300.138
300.095
300.069
300.061
300.055
300.062
300.083
300.118
300.164
300.219
300.183
300.126
300.089
300.062
300.047
300.042
300.043
300.049
300.067
300.096
300.133
300.178
300.139
300.091
300.063
300.044
300.033
300.031
300.032
300.035
300.047
300.068
300.097
300.137
300.175
300.099
300.061
300.039
300.029
300.026
300.032
300.035
300.047
300.073
300.119
300.215
300.173
300.067
300.042
300.028
300.022
300.021
300.021
300.023
300.03
300.044
300.072
300.182
300.217
300.083
300.051
300.034
300.026
300.024
300.025
300.027
300.036
300.056
300.097
300.229
300.266
300.104
300.059
300.039
300.03
300.027
300.029
300.032
300.041
300.062
300.107
300.296
300.244
300.085
300.053
300.038
300.03
300.028
300.032
300.034
300.043
300.061
300.097
300.278
300.308
300.108
300.069
300.048
300.038
300.035
300.039
300.042
300.053
300.076
300.12
300.336
300.36
300.131
300.082
300.057
300.044
300.041
300.044
300.047
300.06
300.088
300.141
300.383
300.488
300.193
300.119
300.079
300.06
300.055
300.059
300.065
300.085
300.13
300.212
300.523
300.595
300.269
300.16
300.102
300.076
300.069
300.063
300.068
300.089
300.13
300.2
300.401
300.409
300.238
300.153
300.1
300.075
300.067
300.055
300.061
300.082
300.124
300.191
300.319
300.205
300.096
300.061
300.04
300.029
300.026
300.024
300.027
300.037
300.057
300.088
300.173
300.105
300.069
300.046
300.03
300.021
300.018
300.01
300.011
300.016
300.024
300.033
300.044
300.025
300.015
300.01
300.006
300.004
300.004
300.002
300.002
300.003
300.005
300.008
300.02
300.013
300.005
300.003
300.002
300.001
300.001
300.001
300.001
300.001
300.002
300.003
300.009
300.007
300.004
300.002
300.001
300.001
300.001
300.001
300.001
300.002
300.003
300.004
300.006
300.004
300.003
300.002
300.002
300.001
300.001
300.001
300.001
300.001
300.002
300.002
300.003
300.002
300.001
300.001
300.001
300.001
300.001
300.001
300.001
300.001
300.001
300.001
300.001
300
300
300.001
300.001
300.001
300.001
300.001
300.001
300
300
300
300
300
300
300
300
300
300.001
300.001
300
300
300
300
300
300
300
300
300
300
300
300
300
300
300
300
300
300
300
300
300
300
300
300
300
300
300
300
300
300
300
300
300
300
300
300
300
300
300
300
300
300
300
300
300
300
300
300
300
300
300
300
300
300
300
300
300
300
300
300
300
300
300
300
300
300
300
300
300
300
300
300
300
300
300
300
300
300
300
300
300
300
300
300
300
300
300
300
300
300
300
300
300
300
300
300
300
300
300
300
300
300.001
300
300
300
300
300
300
300
300
300
300.001
300.002
300.007
300.002
300
300
300
300
300.006
300.005
300.003
300.002
300.005
300.02
300.057
300.022
300.017
300.021
300.029
300.033
300.076
300.07
300.061
300.068
300.099
300.181
300.164
300.086
300.063
300.065
300.081
300.089
300.157
300.146
300.147
300.304
300.526
300.644
300.586
300.459
300.274
300.166
300.173
300.186
300.34
300.44
300.746
302.051
304.474
306.627
309.638
305.384
302.416
300.947
300.584
300.521
300.907
300.961
301.298
303.273
307.565
321.167
310.432
304.288
302.659
302.68
309.781
308.685
311.378
320.599
334.857
360.864
345.311
334.176
330.379
334.135
387.675
382.112
386.201
395.888
406.948
468.856
465.165
460.47
458.399
461.301
465.804
461.639
458.903
459.932
463.564
393.144
386.498
385.049
390.273
399.021
346.139
339.686
336.86
338.928
344.528
323.783
317.332
314.438
314.779
317.324
305.794
305.13
305.575
308.546
315.207
307.129
303.146
301.828
301.674
301.822
301.339
301.287
301.473
302.504
305.16
314.175
320.64
339.563
348.369
365.484
405.16
467.762
470.365
413.172
377.999
362.306
353.156
327.382
319.952
344.71
363.8
390.952
428.677
476.048
466.075
403.148
360.861
335.637
321.028
306.901
306.4
321.436
336.041
361.602
404.653
467.114
456.979
380.725
336.836
316.522
307.799
302.538
303.068
308.654
317.763
338.654
382.976
458.183
449.428
362.895
320.384
306.176
302.408
301.521
301.364
301.312
302.5
311.102
348.083
440.147
440.726
349.356
312.14
303.153
301.786
301.856
301.677
301.637
302.261
307.891
338.094
427.748
431.791
342.148
309.183
302.443
301.536
301.393
301.516
301.681
302.918
311.659
350.465
441.231
436.456
344.368
309.367
302.495
301.576
301.364
301.665
301.863
302.521
307.562
337.571
430.046
433.982
342.013
309.187
303.083
302.239
301.962
302.256
302.66
304.023
313.02
353.121
444.6
451.521
363.688
317.734
305.32
303.208
302.727
301.821
302.16
304.087
316.239
362.375
451.335
445.542
353.207
311.893
302.596
301.335
301.18
300.718
300.776
301.383
307.01
339.572
434.86
437.987
343.321
308.126
301.584
300.849
300.796
300.419
300.251
300.175
300.172
300.217
300.242
301.434
305.18
317.836
354.72
436.42
433.687
351.862
315.674
304.118
301.112
300.586
302.449
312.534
350.624
436.033
437.755
346.984
309.138
301.267
300.299
300.292
300.842
306.646
341.05
435.518
433.013
337.026
305.767
300.892
300.447
300.548
301.704
310.068
348.018
442.346
444.558
354.316
313.648
302.76
300.623
300.46
302.451
313.623
354.923
443.574
436.069
349.986
312.99
302.677
300.613
300.862
303.248
312.668
344.854
427.986
428.367
344.741
312.909
303.523
300.969
300.233
300.22
300.183
300.182
300.277
300.475
300.489
300.288
300.182
300.122
300.094
300.087
300.081
300.088
300.115
300.169
300.251
300.396
300.334
300.237
300.166
300.113
300.083
300.074
300.059
300.066
300.088
300.128
300.185
300.27
300.229
300.141
300.101
300.073
300.056
300.051
300.054
300.062
300.085
300.121
300.169
300.229
300.306
300.176
300.111
300.072
300.052
300.047
300.043
300.047
300.065
300.099
300.152
300.233
300.229
300.143
300.091
300.058
300.042
300.038
300.029
300.032
300.042
300.065
300.103
300.174
300.211
300.117
300.075
300.05
300.038
300.035
300.04
300.043
300.056
300.083
300.129
300.247
300.244
300.133
300.081
300.052
300.039
300.036
300.024
300.025
300.032
300.046
300.074
300.197
300.219
300.078
300.049
300.034
300.027
300.025
300.026
300.028
300.036
300.053
300.086
300.24
300.259
300.087
300.054
300.038
300.03
300.028
300.03
300.032
300.04
300.057
300.09
300.276
300.316
300.106
300.063
300.043
300.034
300.031
300.034
300.036
300.046
300.066
300.107
300.329
300.337
300.112
300.07
300.049
300.039
300.036
300.039
300.042
300.052
300.075
300.118
300.34
300.342
300.124
300.079
300.055
300.044
300.041
300.044
300.048
300.059
300.084
300.13
300.344
300.396
300.148
300.091
300.061
300.048
300.044
300.045
300.049
300.063
300.094
300.154
300.41
300.549
300.227
300.137
300.089
300.067
300.06
300.075
300.082
300.112
300.177
300.301
300.643
300.445
300.226
300.146
300.098
300.075
300.068
300.078
300.086
300.116
300.178
300.278
300.464
300.358
300.221
300.144
300.095
300.07
300.062
300.032
300.035
300.047
300.072
300.114
300.235
300.198
300.106
300.068
300.044
300.032
300.029
300.023
300.026
300.036
300.056
300.082
300.116
300.049
300.039
300.028
300.019
300.014
300.012
300.005
300.005
300.008
300.012
300.018
300.027
300.022
300.01
300.006
300.004
300.003
300.002
300.001
300.001
300.002
300.004
300.007
300.015
300.01
300.004
300.002
300.001
300.001
300.001
300.001
300.001
300.002
300.003
300.004
300.008
300.007
300.005
300.004
300.002
300.002
300.001
300.001
300.002
300.002
300.003
300.004
300.005
300.003
300.003
300.002
300.002
300.001
300.001
300.001
300.001
300.001
300.001
300.002
300.002
300.001
300.001
300.001
300.001
300.001
300.001
300.001
300.001
300.001
300.001
300.001
300
300
300
300
300.001
300.001
300.001
300.001
300.001
300
300
300
300
300
300
300
300
300
300.001
300.001
300
300
300
300
300
300
300
300
300
300
300
300
300
300
300
300
300
300
300
300
300
300
300
300.001
300.002
300.004
300.01
300.021
300.043
300.025
300.013
300.006
300.003
300.001
300
300
300.001
300.001
300.003
300.007
300.013
300.006
300.003
300.001
300.001
300
300
300
300
300
300
300.001
300.003
300.001
300
300
300
300
300
300
300
300
300
300
300
300
300
300
300
300
300
300
300
300
300
300
300
300
300
300
300
300
300
300
300
300
300
300
300
300
300
300
300
300
300
300
300
300
300
300
300
300
300
300
300
300
300
300
300
300
300
300
300.001
300.002
300.001
300
300
300
300
300
300
300
300
300.002
300.008
300.02
300.004
300.002
300.004
300.006
300.008
300.039
300.034
300.024
300.016
300.019
300.052
300.045
300.016
300.016
300.027
300.04
300.046
300.104
300.094
300.071
300.06
300.072
300.14
300.118
300.061
300.058
300.08
300.111
300.126
300.23
300.213
300.189
300.249
300.386
300.516
306.452
303.618
301.707
300.808
300.597
300.581
300.73
300.705
300.784
301.338
302.619
304.903
311.027
304.286
302.371
301.878
302.387
302.854
311.376
310.916
310.07
309.953
311.478
314.994
316.091
310.168
307.494
306.871
307.953
308.789
309.36
308.646
307.319
306.835
307.762
308.837
308.356
309.12
310.783
312.314
320.81
316.66
313.352
311.885
312.004
323.703
323.918
327.353
335.435
345.704
396.359
382.362
369.337
363.705
363.71
447.304
446.935
450.223
457.693
464.564
465.029
397.204
345.254
318.841
309.384
307.906
314.491
334.811
383.436
458.557
451.162
370.103
326.31
311.078
306.544
305.931
309.785
322.906
364.47
447.983
448.567
364.831
322.92
309.955
306.424
316.804
318.039
329.803
371.058
451.568
455.858
381.755
342.499
331.799
333.381
329.304
325.866
324.477
325.743
336.493
374.859
452.248
457.439
385.812
347.32
334.787
330.945
325.152
323.571
359.093
370.234
387.532
421.892
473.608
477.383
431.451
392.647
364.249
344.393
315.935
315.477
344.96
365.231
394.26
433.378
478.174
468.158
407.032
363.986
338.11
323.187
307.145
307.782
323.427
338.243
364.041
407.052
468.171
458.471
383.729
339.49
318.507
309.301
303.748
302.079
303.011
306.997
321.515
364.06
449.886
450.499
365.544
322.937
308.059
303.827
302.815
302.4
302.356
303.943
313.402
350.936
441.478
428.703
339.485
308.776
302.814
302.095
302.125
301.731
301.944
302.994
310.082
343.491
432.628
442.004
351.897
312.718
303.598
302.208
301.974
301.778
302.078