/*--------------------------------*- C++ -*----------------------------------*\
| =========                 |                                                 |
| \\      /  F ield         | OpenFOAM: The Open Source CFD Toolbox           |
|  \\    /   O peration     | Version:  2212                                  |
|   \\  /    A nd           | Website:  www.openfoam.com                      |
|    \\/     M anipulation  |                                                 |
\*---------------------------------------------------------------------------*/
FoamFile
{
    version     2.0;
    format      ascii;
    arch        "LSB;label=32;scalar=64";
    class       polyBoundaryMesh;
    location    "constant/polyMesh";
    object      boundary;
}
// * * * * * * * * * * * * * * * * * * * * * * * * * * * * * * * * * * * * * //


5
(
symmetry
{
    type symmetry;
    nFaces 8070;
    startFace 724200;
}

pipe
{
    type wall;
    nFaces 3600;
    startFace 732270;
}

inlet
{
    type inlet;
    nFaces 248;
    startFace 735870;
}

outlet
{
    type outlet;
    nFaces 248;
    startFace 736118;
}

wall
{
    type wall;
    nFaces 20900;
    startFace 736366;
}

)


// ************************************************************************* //
