/*--------------------------------*- C++ -*----------------------------------*\
| =========                 |                                                 |
| \\      /  F ield         | OpenFOAM: The Open Source CFD Toolbox           |
|  \\    /   O peration     | Version:  2212                                  |
|   \\  /    A nd           | Website:  www.openfoam.com                      |
|    \\/     M anipulation  |                                                 |
\*---------------------------------------------------------------------------*/
FoamFile
{
    version     2.0;
    format      ascii;
    arch        "LSB;label=32;scalar=64";
    class       volScalarField;
    location    "260";
    object      p;
}
// * * * * * * * * * * * * * * * * * * * * * * * * * * * * * * * * * * * * * //

dimensions      [0 2 -2 0 0 0 0];

internalField   nonuniform List<scalar> 
248319
(
0
0.0192807
0.0402704
0.0499122
0.057952
0.0646547
0.0702484
0.10936
0.103294
0.0960211
0.0872987
0.0768395
0.0510498
0.0498381
0.0761409
0.0872743
0.0965704
0.104328
0.110799
0.0812607
0.0763908
0.0706024
0.0636745
0.0553485
0.0330961
0.0137218
0.0280088
0.0342215
0.0395213
0.0440859
0.0480596
0.0626215
0.0577839
0.0519864
0.0450479
0.0367395
0.0196808
-0.0539516
-0.0471952
-0.0434507
-0.0403272
-0.0377067
-0.035531
-0.02123
-0.0246977
-0.0288562
-0.0338339
-0.0397993
-0.0507606
-0.0555454
-0.0402181
-0.0334758
-0.0278607
-0.0231803
-0.0192637
0.0634675
0.057428
0.0501795
0.0414885
0.0310671
0.000543424
0.0309081
0.0593119
0.0692844
0.0775988
0.0845266
0.0903058
0.100137
0.0944899
0.0877148
0.0795878
0.0698442
0.0359025
0.0499506
0.074974
0.0847371
0.0928743
0.0996582
0.105313
0.109528
0.103005
0.0951841
0.0858076
0.0745682
0.0473143
0.019078
0.0397502
0.0463771
0.0519033
0.0565861
0.0606349
-0.0356302
-0.0383605
-0.0410906
-0.0438188
-0.0465487
-0.0535715
-0.0515017
-0.0438537
-0.0414654
-0.0392251
-0.037087
-0.0350224
-0.140385
-0.140794
-0.141185
-0.141554
-0.141892
-0.145268
-0.14483
-0.141954
-0.140974
-0.14016
-0.139479
-0.138907
-0.132515
-0.133792
-0.135338
-0.137176
-0.139386
-0.144443
-0.145906
-0.139377
-0.136704
-0.134475
-0.132606
-0.131065
-0.133985
-0.135623
-0.137601
-0.139961
-0.142805
-0.15019
-0.0695786
-0.0525761
-0.0457557
-0.04007
-0.0353368
-0.0313744
0.0473179
0.0406975
0.0327567
0.0232257
0.011799
-0.0194627
-0.00915881
0.0315425
0.0452787
0.056732
0.0662827
0.0742451
0.0901756
0.0833703
0.0752095
0.0654181
0.0536751
0.0104138
0.00965621
0.0523157
0.0641535
0.0740203
0.0822436
0.0890998
0.0978801
0.0922989
0.0856019
0.077565
0.0679229
0.0344795
0.048943
0.0735211
0.0833195
0.0914837
0.0982869
0.103954
0.109476
0.102781
0.0947545
0.0851318
0.0735952
0.0456359
0.0147863
0.0354125
0.0421979
0.0479109
0.0527925
0.057039
-0.0392368
-0.0419528
-0.0446707
-0.0473889
-0.0501096
-0.0586928
-0.147624
-0.143316
-0.142598
-0.141879
-0.141162
-0.140444
-0.139443
-0.140146
-0.140845
-0.141544
-0.142243
-0.14619
-0.244002
-0.242355
-0.242282
-0.242209
-0.242136
-0.242062
-0.242966
-0.242954
-0.24292
-0.24286
-0.242762
-0.24376
-0.2433
-0.242397
-0.242272
-0.242165
-0.242081
-0.242014
-0.238679
-0.239001
-0.239382
-0.239847
-0.240398
-0.242611
-0.242864
-0.239811
-0.239091
-0.238488
-0.237989
-0.237563
-0.238119
-0.238587
-0.239151
-0.239819
-0.24062
-0.244226
-0.245654
-0.241494
-0.240517
-0.239708
-0.239024
-0.238465
-0.136213
-0.138057
-0.140274
-0.14293
-0.146118
-0.154315
-0.0773889
-0.0596727
-0.0525186
-0.0465531
-0.041588
-0.0374417
0.0342248
0.0274474
0.0193135
0.00954905
-0.00215299
-0.0328399
-0.0252807
0.0126362
0.0266675
0.0383665
0.0481199
0.0562474
0.0568249
0.0485572
0.0386341
0.0267303
0.0124496
-0.0247299
-0.0091304
0.0306882
0.0447096
0.056396
0.0661383
0.0742593
0.0739311
0.0657293
0.0558882
0.0440824
0.029913
-0.00975783
0.00872559
0.0514125
0.0634121
0.0734095
0.081742
0.0886867
0.0975771
0.0919177
0.0851285
0.0769799
0.0672034
0.033556
0.0480727
0.072986
0.0829144
0.0911875
0.0980827
0.103826
0.109426
0.10262
0.0944577
0.0846722
0.0729394
0.0445341
0.0132919
0.034
0.0409728
0.0468595
0.0518997
0.0562866
-0.0407165
-0.0434397
-0.0461623
-0.0488851
-0.0516095
-0.0603955
-0.148683
-0.144127
-0.143451
-0.142775
-0.142101
-0.141425
-0.242711
-0.242787
-0.242863
-0.24294
-0.243017
-0.245106
-0.244489
-0.242465
-0.242393
-0.242321
-0.242249
-0.242175
-0.343424
-0.343422
-0.343419
-0.343418
-0.343415
-0.344196
-0.343962
-0.343396
-0.343418
-0.343439
-0.34346
-0.343481
-0.344213
-0.344161
-0.344096
-0.344019
-0.343924
-0.344013
-0.343691
-0.343599
-0.343654
-0.343705
-0.343745
-0.34378
-0.34196
-0.342007
-0.342059
-0.342128
-0.342209
-0.343036
-0.342988
-0.341732
-0.341603
-0.34149
-0.341402
-0.341335
-0.341472
-0.341554
-0.341664
-0.341798
-0.34195
-0.343475
-0.343948
-0.34213
-0.341942
-0.341777
-0.341646
-0.341533
-0.340736
-0.340931
-0.341147
-0.341418
-0.341738
-0.34399
-0.246039
-0.241069
-0.239691
-0.238546
-0.237583
-0.236797
-0.134498
-0.136816
-0.139604
-0.142944
-0.146946
-0.156207
-0.0818231
-0.0633009
-0.0553348
-0.048691
-0.043169
-0.0385468
0.0239857
0.0175067
0.00972948
0.000397501
-0.0107879
-0.0404976
-0.0341701
0.00128307
0.0135983
0.0238672
0.0324276
0.0395611
0.0405681
0.0333967
0.0247914
0.0144674
0.00208291
-0.0330906
-0.0329087
0.00219384
0.0145654
0.024877
0.033472
0.0406331
0.0567252
0.0484217
0.0384573
0.0265046
0.0121619
-0.0248744
-0.0250446
0.0120484
0.0263915
0.0383433
0.048304
0.0566033
0.0737358
0.0655227
0.0556666
0.0438372
0.0296453
-0.0101077
0.00827795
0.0511179
0.0631543
0.0731796
0.0815383
0.0885014
0.0974536
0.0917748
0.0849633
0.0767874
0.0669734
0.0331489
0.0476889
0.0727844
0.0827546
0.0910609
0.0979837
0.103751
0.109383
0.102531
0.0943141
0.0844619
0.0726507
0.0440655
0.0127375
0.0335616
0.0406031
0.0465492
0.0516414
0.0560698
-0.0411986
-0.0439176
-0.0466357
-0.0493546
-0.052075
-0.0610023
-0.149288
-0.144725
-0.144045
-0.143365
-0.142685
-0.142006
-0.24317
-0.243246
-0.243323
-0.243401
-0.243477
-0.245556
-0.344848
-0.344022
-0.344022
-0.344022
-0.344022
-0.344022
-0.343704
-0.343705
-0.343705
-0.343705
-0.343705
-0.344541
-0.444322
-0.443995
-0.443994
-0.443994
-0.443994
-0.443994
-0.443833
-0.443832
-0.443831
-0.44383
-0.443828
-0.444115
-0.444022
-0.443866
-0.443879
-0.443893
-0.443907
-0.44392
-0.444473
-0.444443
-0.444404
-0.444357
-0.444302
-0.444155
-0.444019
-0.444157
-0.444216
-0.44427
-0.444316
-0.444349
-0.443415
-0.443414
-0.443408
-0.443402
-0.443397
-0.443654
-0.443731
-0.443285
-0.443281
-0.443267
-0.443263
-0.443248
-0.443602
-0.443624
-0.44362
-0.443642
-0.443658
-0.444169
-0.444732
-0.44419
-0.444155
-0.444139
-0.444129
-0.444106
-0.444392
-0.444417
-0.444453
-0.444489
-0.444545
-0.44517
-0.445373
-0.44455
-0.444433
-0.444331
-0.444255
-0.444191
-0.338862
-0.339229
-0.33965
-0.340164
-0.340779
-0.343672
-0.24583
-0.239641
-0.237459
-0.23564
-0.234113
-0.232854
-0.124298
-0.127551
-0.131465
-0.136159
-0.141796
-0.154691
-0.0824983
-0.0606211
-0.0513461
-0.0436111
-0.0371796
-0.0317938
0.0161842
0.0099807
0.00253859
-0.00639054
-0.0171006
-0.0445922
-0.0407027
-0.011509
-0.00120115
0.00739515
0.014557
0.0205305
0.0212638
0.0153436
0.00824254
-0.000280322
-0.0105023
-0.0395421
-0.0393192
-0.010336
-0.000136383
0.00836569
0.0154495
0.021356
0.0213297
0.0154261
0.00835046
-0.000144632
-0.0103423
-0.0393546
-0.0329638
0.00218341
0.0145447
0.0248472
0.0334299
0.0405825
0.0405315
0.0333797
0.0247999
0.0144994
0.00213914
-0.0330611
-0.0251777
0.0119747
0.0263164
0.0382677
0.0482259
0.0565232
0.0736372
0.0654216
0.0555629
0.0437304
0.0295355
-0.01029
0.00808365
0.0510121
0.0630533
0.0730854
0.0814491
0.088417
0.0973999
0.0917184
0.0849008
0.0767198
0.0669013
0.0330003
0.0475577
0.0727233
0.0827036
0.0910185
0.0979488
0.103722
0.109373
0.102505
0.0942686
0.0843927
0.0725544
0.0439225
0.0125819
0.033512
0.0405935
0.0465736
0.0516917
0.0561374
-0.0413529
-0.0440814
-0.046809
-0.0495365
-0.0522653
-0.0612193
-0.149547
-0.144991
-0.144309
-0.143628
-0.142945
-0.142262
-0.24344
-0.243517
-0.243594
-0.24367
-0.243748
-0.245807
-0.345064
-0.34426
-0.34426
-0.34426
-0.344259
-0.344259
-0.444427
-0.444427
-0.444428
-0.444428
-0.444428
-0.444731
-0.444543
-0.444222
-0.444222
-0.444222
-0.444221
-0.444221
-0.543794
-0.543794
-0.543794
-0.543795
-0.543795
-0.543932
-0.543746
-0.543603
-0.543603
-0.543603
-0.543602
-0.543602
-0.543483
-0.543483
-0.543484
-0.543483
-0.543482
-0.543605
-0.543568
-0.54352
-0.543526
-0.543533
-0.543539
-0.543546
-0.543923
-0.543907
-0.543888
-0.543863
-0.543835
-0.543703
-0.543718
-0.543862
-0.543901
-0.543928
-0.543948
-0.54398
-0.54364
-0.543624
-0.543634
-0.54362
-0.543613
-0.543657
-0.543971
-0.54388
-0.543874
-0.54389
-0.543871
-0.543879
-0.544614
-0.544605
-0.544625
-0.544615
-0.54462
-0.544655
-0.545649
-0.545727
-0.545726
-0.545729
-0.545718
-0.545722
-0.54705
-0.547054
-0.54706
-0.547061
-0.547068
-0.54685
-0.548111
-0.548448
-0.548421
-0.548415
-0.548395
-0.548384
-0.549286
-0.54931
-0.54935
-0.549384
-0.549434
-0.549069
-0.445318
-0.44412
-0.443846
-0.443621
-0.443436
-0.443278
-0.336054
-0.336712
-0.337483
-0.338418
-0.339543
-0.343302
-0.246654
-0.238957
-0.235643
-0.232876
-0.230562
-0.228641
-0.121753
-0.125793
-0.130658
-0.136495
-0.143497
-0.159713
-0.109583
-0.0815071
-0.0711906
-0.0625849
-0.0554129
-0.0494305
-0.0144974
-0.0204194
-0.0275128
-0.0360298
-0.0462429
-0.0736377
-0.0681656
-0.0358154
-0.0257645
-0.0173869
-0.0103986
-0.00457012
-0.00459548
-0.0104139
-0.0173879
-0.0257553
-0.0358004
-0.0676257
-0.0675448
-0.0358212
-0.0257757
-0.0174051
-0.0104296
-0.00461488
-0.00466424
-0.0104771
-0.0174548
-0.0258219
-0.0358657
-0.0676156
-0.067709
-0.0359247
-0.0258753
-0.0175026
-0.0105251
-0.0047093
0.0212896
0.0153861
0.00830816
-0.000189112
-0.0103889
-0.0394354
-0.0395004
-0.010431
-0.000230106
0.00827137
0.0153542
0.0212574
0.0404997
0.0333454
0.0247614
0.0144603
0.00209835
-0.0331316
-0.0252539
0.0119331
0.0262733
0.0382237
0.0481825
0.0564818
0.0735901
0.0653746
0.0555161
0.0436858
0.0294921
-0.0103713
0.00801378
0.0509758
0.063016
0.0730495
0.0814135
0.0883811
0.0973807
0.091698
0.0848792
0.0766985
0.0668843
0.032962
0.0475285
0.0727102
0.0826901
0.091006
0.0979365
0.103712
0.109366
0.102496
0.0942566
0.0843769
0.0725361
0.0438935
0.0125506
0.033505
0.0405906
0.0465729
0.0516939
0.0561409
-0.0413808
-0.0441121
-0.0468407
-0.0495689
-0.0522996
-0.0612605
-0.149629
-0.145081
-0.144399
-0.143716
-0.143035
-0.142351
-0.243567
-0.243645
-0.243721
-0.243798
-0.243876
-0.245918
-0.345192
-0.344403
-0.344402
-0.344402
-0.344402
-0.344402
-0.444592
-0.444592
-0.444592
-0.444593
-0.444593
-0.444882
-0.544342
-0.544237
-0.544237
-0.544236
-0.544236
-0.544236
-0.54401
-0.54401
-0.54401
-0.54401
-0.544011
-0.544131
-0.643242
-0.643202
-0.643202
-0.643201
-0.643201
-0.643201
-0.642909
-0.642909
-0.64291
-0.64291
-0.64291
-0.64297
-0.642767
-0.642697
-0.642696
-0.642696
-0.642696
-0.642696
-0.642571
-0.642572
-0.642572
-0.642572
-0.642573
-0.642638
-0.642611
-0.642582
-0.642584
-0.642585
-0.642586
-0.64259
-0.642824
-0.642817
-0.64281
-0.642802
-0.64279
-0.642716
-0.642827
-0.642926
-0.642935
-0.642948
-0.642969
-0.642969
-0.643012
-0.64302
-0.643009
-0.643011
-0.643009
-0.642981
-0.643498
-0.643551
-0.643557
-0.643553
-0.643553
-0.643553
-0.64462
-0.644625
-0.644616
-0.644628
-0.644618
-0.644443
-0.645877
-0.64626
-0.646263
-0.646252
-0.64626
-0.646256
-0.648466
-0.648467
-0.648473
-0.648477
-0.648474
-0.647826
-0.650196
-0.651139
-0.651142
-0.651136
-0.651128
-0.651132
-0.653636
-0.653637
-0.653644
-0.653649
-0.653653
-0.652498
-0.653214
-0.654529
-0.654503
-0.654495
-0.654473
-0.654469
-0.548938
-0.54901
-0.54909
-0.549183
-0.549297
-0.549067
-0.445045
-0.443205
-0.442636
-0.442159
-0.441762
-0.441439
-0.332401
-0.333554
-0.334904
-0.336542
-0.338508
-0.343569
-0.247296
-0.235374
-0.230335
-0.226132
-0.222613
-0.219706
-0.125696
-0.130353
-0.135938
-0.14264
-0.150677
-0.170143
-0.126771
-0.099583
-0.0890771
-0.0803176
-0.0730155
-0.0669297
-0.0553518
-0.0619194
-0.0698083
-0.0792659
-0.0906143
-0.121098
-0.102532
-0.0664808
-0.0549387
-0.0453139
-0.0372926
-0.0306029
-0.0307567
-0.0374093
-0.045392
-0.0549682
-0.0664578
-0.101791
-0.10168
-0.0665621
-0.0550724
-0.0454942
-0.0375109
-0.0308593
-0.0309364
-0.0375889
-0.0455734
-0.0551514
-0.066645
-0.101735
-0.101826
-0.0667083
-0.0552099
-0.0456316
-0.0376443
-0.0309894
-0.0310234
-0.0376782
-0.0456678
-0.055251
-0.0667543
-0.101897
-0.0677778
-0.0359698
-0.0259155
-0.0175379
-0.0105581
-0.00473921
-0.00475466
-0.0105769
-0.0175588
-0.0259418
-0.0359959
-0.0678211
-0.03954
-0.0104558
-0.000252585
0.00824691
0.0153346
0.0212371
0.0404812
0.033325
0.0247397
0.0144367
0.00207214
-0.033175
-0.0252939
0.0119101
0.026252
0.0382032
0.0481639
0.0564611
0.0735722
0.0653571
0.0554987
0.0436686
0.0294754
-0.0104022
0.00799663
0.0509669
0.063005
0.0730382
0.081402
0.0883673
0.0973748
0.0916919
0.0848758
0.0766966
0.0668816
0.0329611
0.0475314
0.0727082
0.0826889
0.0910054
0.0979342
0.103709
0.109365
0.102495
0.0942553
0.0843754
0.072534
0.0439044
0.012573
0.0335389
0.0406306
0.0466164
0.0517388
0.0561876
-0.0413668
-0.0440961
-0.0468242
-0.0495548
-0.0522862
-0.0612468
-0.149638
-0.145099
-0.144416
-0.143732
-0.143049
-0.142367
-0.243615
-0.243691
-0.243769
-0.243847
-0.243924
-0.245957
-0.345266
-0.344486
-0.344486
-0.344485
-0.344485
-0.344485
-0.44473
-0.44473
-0.444731
-0.444731
-0.444731
-0.445009
-0.544573
-0.544484
-0.544484
-0.544484
-0.544483
-0.544483
-0.644064
-0.644065
-0.644065
-0.644065
-0.644066
-0.64404
-0.643598
-0.643587
-0.643586
-0.643586
-0.643586
-0.643586
-0.742919
-0.742919
-0.742919
-0.74292
-0.74292
-0.742847
-0.742209
-0.742229
-0.742229
-0.742229
-0.742228
-0.742228
-0.741753
-0.741753
-0.741754
-0.741754
-0.741754
-0.741771
-0.74149
-0.741454
-0.741454
-0.741453
-0.741453
-0.741453
-0.741285
-0.741285
-0.741285
-0.741286
-0.741287
-0.741329
-0.741281
-0.741248
-0.741248
-0.741247
-0.741249
-0.741249
-0.741355
-0.741354
-0.741354
-0.741354
-0.741355
-0.74134
-0.741487
-0.741531
-0.741533
-0.741536
-0.741539
-0.741541
-0.741816
-0.741816
-0.741816
-0.741815
-0.741815
-0.741766
-0.742395
-0.742517
-0.742513
-0.742509
-0.742518
-0.742513
-0.743763
-0.743757
-0.743757
-0.743754
-0.743764
-0.743488
-0.745184
-0.745696
-0.745688
-0.745699
-0.745691
-0.745697
-0.748449
-0.748448
-0.748452
-0.748444
-0.748449
-0.747603
-0.750727
-0.752002
-0.751997
-0.751996
-0.751997
-0.751998
-0.755808
-0.755822
-0.755805
-0.755818
-0.755817
-0.754138
-0.757008
-0.758299
-0.7583
-0.758285
-0.758299
-0.758285
-0.752343
-0.752348
-0.752347
-0.752364
-0.752365
-0.750908
-0.650118
-0.651429
-0.651372
-0.651339
-0.651295
-0.651278
-0.54652
-0.546694
-0.546872
-0.547091
-0.547364
-0.547558
-0.44459
-0.441789
-0.440714
-0.439817
-0.439065
-0.438452
-0.328982
-0.33079
-0.332947
-0.335547
-0.338657
-0.345474
-0.255366
-0.239722
-0.23321
-0.227781
-0.22325
-0.219481
-0.140951
-0.146832
-0.153875
-0.162337
-0.172473
-0.201279
-0.161023
-0.13394
-0.123847
-0.115428
-0.108407
-0.102548
-0.0845192
-0.090948
-0.0986566
-0.107903
-0.11899
-0.15327
-0.152023
-0.118417
-0.107521
-0.098435
-0.0908636
-0.0845513
-0.0556965
-0.0621125
-0.0698195
-0.0790622
-0.0901516
-0.119896
-0.119715
-0.0901903
-0.079129
-0.0699098
-0.0622272
-0.055826
-0.0559222
-0.0623219
-0.0700001
-0.0792167
-0.0902731
-0.119777
-0.119868
-0.090345
-0.0792854
-0.0700665
-0.0623836
-0.0559842
-0.0560202
-0.0624217
-0.0701074
-0.0793312
-0.0903958
-0.119937
-0.119979
-0.0904233
-0.0793575
-0.0701295
-0.0624435
-0.0560369
-0.0310411
-0.0376957
-0.0456877
-0.0552735
-0.0667815
-0.101941
-0.101966
-0.0667921
-0.0552838
-0.0456979
-0.037706
-0.031046
-0.00476621
-0.0105842
-0.0175691
-0.0259521
-0.0360085
-0.0678467
-0.0395624
-0.0104683
-0.00026309
0.00823864
0.015324
0.0212296
0.0404718
0.0333168
0.0247282
0.0144245
0.00205864
-0.0332
-0.0253154
0.0118993
0.0262423
0.0381927
0.0481539
0.056453
0.073567
0.0653518
0.0554918
0.0436657
0.0294714
-0.0104135
0.00799551
0.0509679
0.0630058
0.0730363
0.0813982
0.0883653
0.0973734
0.0916924
0.0848783
0.0767002
0.0668855
0.0329689
0.0475378
0.0727108
0.0826916
0.0910068
0.0979362
0.10371
0.109364
0.102493
0.0942552
0.0843766
0.0725354
0.0439104
0.0125856
0.0335472
0.0406377
0.0466246
0.0517441
0.0561908
-0.0413445
-0.0440735
-0.0468025
-0.0495331
-0.0522656
-0.0612236
-0.149626
-0.145089
-0.144407
-0.143722
-0.143038
-0.142356
-0.243631
-0.243707
-0.243786
-0.243865
-0.243941
-0.24597
-0.345315
-0.34454
-0.34454
-0.34454
-0.344539
-0.344539
-0.44485
-0.44485
-0.44485
-0.44485
-0.444851
-0.44512
-0.544812
-0.544746
-0.544746
-0.544745
-0.544745
-0.544745
-0.644611
-0.644611
-0.644611
-0.644612
-0.644613
-0.644538
-0.744696
-0.744959
-0.744957
-0.744956
-0.744955
-0.744955
-0.743847
-0.743847
-0.743847
-0.743848
-0.743849
-0.743693
-0.843872
-0.844225
-0.844223
-0.844222
-0.844222
-0.844222
-0.842491
-0.842491
-0.842491
-0.842492
-0.842492
-0.842306
-0.841186
-0.841267
-0.841267
-0.841266
-0.841266
-0.841266
-0.840482
-0.840483
-0.840483
-0.840483
-0.840484
-0.840464
-0.840038
-0.840026
-0.840025
-0.840025
-0.840024
-0.840024
-0.839775
-0.839775
-0.839776
-0.839776
-0.839777
-0.839805
-0.839715
-0.839679
-0.839678
-0.839676
-0.839674
-0.839673
-0.839684
-0.839688
-0.839693
-0.839697
-0.839703
-0.839723
-0.839868
-0.839873
-0.839873
-0.839867
-0.839864
-0.839862
-0.840222
-0.840227
-0.840218
-0.840223
-0.840225
-0.840178
-0.840807
-0.840939
-0.840932
-0.840935
-0.84094
-0.840935
-0.842155
-0.842155
-0.842164
-0.842152
-0.84216
-0.841877
-0.843559
-0.844077
-0.844076
-0.844076
-0.844076
-0.844071
-0.846883
-0.846898
-0.846884
-0.846892
-0.846896
-0.846021
-0.849272
-0.850666
-0.850654
-0.850655
-0.850663
-0.850656
-0.854984
-0.854974
-0.854979
-0.854971
-0.854982
-0.85284
-0.856038
-0.858672
-0.858667
-0.858666
-0.858665
-0.858668
-0.859245
-0.85925
-0.859246
-0.859251
-0.859249
-0.858024
-0.901215
-0.901623
-0.90161
-0.9016
-0.90159
-0.901583
-0.925075
-0.933752
-0.940986
-0.947018
-0.952046
-0.952044
-0.947017
-0.94099
-0.933761
-0.925088
-0.925098
-0.93377
-0.941001
-0.947021
-0.952036
-0.952033
-0.947012
-0.940996
-0.933773
-0.925115
-0.92513
-0.933782
-0.941001
-0.947002
-0.952017
-0.952177
-0.947015
-0.940828
-0.9334
-0.924489
-0.925719
-0.934419
-0.941673
-0.947712
-0.952749
-0.909907
-0.903473
-0.895754
-0.88649
-0.875371
-0.848787
-0.805057
-0.838016
-0.851581
-0.862885
-0.872305
-0.880152
-0.879987
-0.871974
-0.862353
-0.85081
-0.836958
-0.837503
-0.85117
-0.862558
-0.872049
-0.879955
-0.879973
-0.872063
-0.862568
-0.851174
-0.8375
-0.837502
-0.851182
-0.862576
-0.872072
-0.879987
-0.880005
-0.872084
-0.862583
-0.851181
-0.837502
-0.837499
-0.851181
-0.862585
-0.872089
-0.880008
-0.865281
-0.856791
-0.846603
-0.834378
-0.819706
-0.819707
-0.834375
-0.846598
-0.856785
-0.865273
-0.865264
-0.856777
-0.846593
-0.834372
-0.819708
-0.819704
-0.834367
-0.846585
-0.856764
-0.86525
-0.865232
-0.856752
-0.846574
-0.83436
-0.819703
-0.81822
-0.833309
-0.845883
-0.856358
-0.865085
-0.865046
-0.856214
-0.845614
-0.832891
-0.817623
-0.782396
-0.782329
-0.7824
-0.782385
-0.782366
-0.782348
-0.782344
-0.718822
-0.71888
-0.718926
-0.718995
-0.719072
-0.71798
-0.636444
-0.636844
-0.636468
-0.636169
-0.635899
-0.635691
-0.536307
-0.537019
-0.537849
-0.538873
-0.540081
-0.542421
-0.446156
-0.43973
-0.436571
-0.433945
-0.43174
-0.429915
-0.321614
-0.32532
-0.329752
-0.33508
-0.341464
-0.356618
-0.302156
-0.273987
-0.264385
-0.256386
-0.24971
-0.244149
-0.204061
-0.209642
-0.216353
-0.224396
-0.234035
-0.26024
-0.222128
-0.195112
-0.185127
-0.176798
-0.169857
-0.16407
-0.150263
-0.156525
-0.164032
-0.173039
-0.183844
-0.214782
-0.19191
-0.153451
-0.141729
-0.131957
-0.12381
-0.117019
-0.116777
-0.123464
-0.131481
-0.141102
-0.152646
-0.190281
-0.18991
-0.152595
-0.141086
-0.131492
-0.123504
-0.116837
-0.0846731
-0.0909713
-0.0985324
-0.107606
-0.118487
-0.151842
-0.151889
-0.11857
-0.107692
-0.0986262
-0.0910702
-0.0847787
-0.0848454
-0.0911402
-0.0986985
-0.107767
-0.118653
-0.151985
-0.15206
-0.118707
-0.107816
-0.0987446
-0.0911839
-0.084887
-0.0849056
-0.0912051
-0.0987716
-0.107843
-0.118738
-0.152106
-0.152132
-0.118754
-0.107858
-0.0987845
-0.091216
-0.0849128
-0.0560439
-0.0624532
-0.0701414
-0.0793695
-0.0904373
-0.120003
-0.120013
-0.0904419
-0.0793704
-0.0701437
-0.0624532
-0.0560439
-0.0310479
-0.0377079
-0.0456998
-0.0552903
-0.0667966
-0.101977
-0.0678555
-0.0360139
-0.0259552
-0.0175748
-0.0105872
-0.0047693
0.0212254
0.0153197
0.00823438
-0.000269419
-0.0104732
-0.0395723
-0.0332125
0.00205227
0.0144183
0.0247222
0.0333127
0.0404684
0.0564528
0.0481496
0.0381887
0.0262399
0.0118969
-0.0253241
-0.0104151
0.0294745
0.0436687
0.0554942
0.0653501
0.0735653
0.0883634
0.0813988
0.0730395
0.0630091
0.0509718
0.00799968
0.0329763
0.0668907
0.0767018
0.0848792
0.0916942
0.0973722
0.10371
0.0979357
0.0910054
0.0826924
0.0727152
0.0475447
0.0439193
0.0725397
0.0843788
0.0942548
0.102492
0.109363
0.0562022
0.051756
0.0466358
0.0406496
0.0335598
0.0126003
-0.0612049
-0.0522489
-0.0495173
-0.0467881
-0.0440567
-0.0413266
-0.142344
-0.143027
-0.14371
-0.144393
-0.145077
-0.149613
-0.245975
-0.243946
-0.243868
-0.243791
-0.243713
-0.243636
-0.344577
-0.344577
-0.344577
-0.344578
-0.344578
-0.34535
-0.445219
-0.444957
-0.444957
-0.444957
-0.444956
-0.444956
-0.544996
-0.544996
-0.544996
-0.544997
-0.544998
-0.545042
-0.645035
-0.645162
-0.645161
-0.64516
-0.645159
-0.645159
-0.74611
-0.74611
-0.746112
-0.746113
-0.746116
-0.745733
-0.847878
-0.848744
-0.848742
-0.848741
-0.84874
-0.848739
-0.846395
-0.846395
-0.846396
-0.846397
-0.846399
-0.845811
-0.948379
-0.949553
-0.949551
-0.949551
-0.94955
-0.94955
-0.945517
-0.945517
-0.945517
-0.945518
-0.945519
-0.944841
-0.942118
-0.94247
-0.942469
-0.942469
-0.942468
-0.942468
-0.940432
-0.940432
-0.940432
-0.940432
-0.940433
-0.940271
-0.939136
-0.939194
-0.939193
-0.939193
-0.939192
-0.939192
-0.938502
-0.938502
-0.938502
-0.938503
-0.938503
-0.938496
-0.938161
-0.938143
-0.938142
-0.938141
-0.938141
-0.93814
-0.937968
-0.937972
-0.937974
-0.937974
-0.937978
-0.938011
-0.937965
-0.93793
-0.937922
-0.937917
-0.937911
-0.937905
-0.938041
-0.938044
-0.938049
-0.938054
-0.938065
-0.938074
-0.938346
-0.938379
-0.938373
-0.938373
-0.938373
-0.938373
-0.938968
-0.938968
-0.938969
-0.938972
-0.938969
-0.938866
-0.939742
-0.939965
-0.939974
-0.939962
-0.939971
-0.939966
-0.941558
-0.941553
-0.941553
-0.941557
-0.941559
-0.94114
-0.943228
-0.943946
-0.943944
-0.943944
-0.943931
-0.943947
-0.947218
-0.947215
-0.947224
-0.947227
-0.947219
-0.946013
-0.949099
-0.951246
-0.95125
-0.951252
-0.951242
-0.951244
-0.955691
-0.955677
-0.95569
-0.955687
-0.955686
-0.951642
-0.967731
-0.985636
-0.991768
-0.996881
-1.00114
-1.00469
-1.00412
-1.00412
-1.00413
-1.00413
-1.00414
-1.00063
-1.00063
-1.00063
-1.00063
-1.00064
-0.996444
-0.996441
-0.996435
-0.996429
-0.996419
-0.991369
-0.991383
-0.991392
-0.991411
-0.991427
-0.985396
-0.985366
-0.985343
-0.98533
-0.985308
-0.969933
-0.969934
-0.969955
-0.969969
-0.969985
-1.05317
-1.05315
-1.05313
-1.05313
-1.05311
-1.05711
-1.05712
-1.05715
-1.05717
-1.0572
-1.05965
-1.05963
-1.05961
-1.05959
-1.05958
-1.06165
-1.06165
-1.06167
-1.06168
-1.06169
-1.06339
-1.06339
-1.06338
-1.06338
-1.06337
-1.0648
-1.06481
-1.0648
-1.06481
-1.06481
-1.06527
-1.06382
-1.06205
-1.05994
-1.05741
-1.05285
-1.0526
-1.05801
-1.06059
-1.06274
-1.06453
-1.06602
-1.00581
-1.00233
-0.998159
-0.993148
-0.987132
-0.965435
-0.902028
-0.904949
-0.929523
-0.937281
-0.943749
-0.949135
-0.953617
-0.910395
-0.904626
-0.897705
-0.889401
-0.879436
-0.851445
-0.80734
-0.841156
-0.853819
-0.864373
-0.873163
-0.880492
-0.865263
-0.856748
-0.846527
-0.834264
-0.819544
-0.784408
-0.783327
-0.818585
-0.833621
-0.846151
-0.856592
-0.865288
-0.865119
-0.856106
-0.845287
-0.832299
-0.816714
-0.781272
-0.780833
-0.817155
-0.832623
-0.845512
-0.856248
-0.865196
-0.865341
-0.865354
-0.865365
-0.86537
-0.865376
-0.856627
-0.856622
-0.856619
-0.856613
-0.856602
-0.846117
-0.846121
-0.846123
-0.846122
-0.846124
-0.833519
-0.833521
-0.833527
-0.833529
-0.833529
-0.818429
-0.818419
-0.818412
-0.818401
-0.818394
-0.78036
-0.78039
-0.780425
-0.780478
-0.780529
-0.716451
-0.716181
-0.715952
-0.715765
-0.715602
-0.630721
-0.631251
-0.631893
-0.632642
-0.633563
-0.634418
-0.541646
-0.537035
-0.534648
-0.532651
-0.531004
-0.529606
-0.420798
-0.423727
-0.427262
-0.431505
-0.43658
-0.44795
-0.37054
-0.352045
-0.344546
-0.338301
-0.333087
-0.328737
-0.270589
-0.27593
-0.28234
-0.290028
-0.299252
-0.32512
-0.317658
-0.287995
-0.278394
-0.270388
-0.263716
-0.258155
-0.220271
-0.226547
-0.234078
-0.243114
-0.253949
-0.292166
-0.251768
-0.218284
-0.207721
-0.198911
-0.191563
-0.18544
-0.184867
-0.190843
-0.198007
-0.206606
-0.216916
-0.249827
-0.212892
-0.182753
-0.172257
-0.163513
-0.156217
-0.150141
-0.150112
-0.156157
-0.163406
-0.172099
-0.182536
-0.212396
-0.212335
-0.182538
-0.172117
-0.163434
-0.1562
-0.150163
-0.116924
-0.123579
-0.131564
-0.141147
-0.152647
-0.189886
-0.189962
-0.152716
-0.141214
-0.131629
-0.123644
-0.116986
-0.117027
-0.123689
-0.131675
-0.141265
-0.152767
-0.190032
-0.190082
-0.152799
-0.141295
-0.131703
-0.123711
-0.117052
-0.117061
-0.123721
-0.131717
-0.141308
-0.152817
-0.19011
-0.190122
-0.152824
-0.141312
-0.131718
-0.123722
-0.117063
-0.0849136
-0.0912169
-0.098785
-0.107864
-0.118757
-0.152143
-0.152147
-0.118757
-0.107862
-0.0987797
-0.0912139
-0.0849088
-0.0560379
-0.0624473
-0.0701401
-0.0793675
-0.0904411
-0.120015
-0.101982
-0.0667972
-0.0552906
-0.0456979
-0.0377033
-0.0310465
-0.00476588
-0.0105909
-0.0175748
-0.0259579
-0.0360168
-0.0678607
-0.0395772
-0.0104749
-0.000270317
0.00823135
0.0153215
0.0212239
0.0404687
0.0333111
0.0247218
0.0144184
0.00205067
-0.0332175
-0.0253262
0.0118965
0.0262403
0.0381899
0.048149
0.0564537
0.0735643
0.065351
0.0554977
0.0436704
0.0294775
-0.0104147
0.00800197
0.0509757
0.0630112
0.0730429
0.0814
0.0883643
0.0973718
0.0916948
0.0848789
0.0767025
0.0668929
0.032982
0.0475514
0.0727165
0.0826926
0.0910069
0.0979356
0.103709
0.109361
0.102492
0.094256
0.0843799
0.072541
0.043924
0.0126065
0.0335606
0.0406503
0.0466363
0.051756
0.056203
-0.0413184
-0.0440471
-0.0467776
-0.049508
-0.0522383
-0.0611922
-0.149606
-0.145069
-0.144385
-0.143701
-0.143019
-0.142335
-0.243639
-0.243716
-0.243793
-0.24387
-0.243949
-0.245977
-0.345376
-0.344608
-0.344607
-0.344607
-0.344606
-0.344606
-0.445043
-0.445043
-0.445044
-0.445044
-0.445045
-0.445298
-0.54523
-0.545204
-0.545203
-0.545202
-0.545201
-0.545201
-0.645616
-0.645617
-0.645618
-0.64562
-0.645622
-0.645453
-0.746628
-0.74712
-0.747117
-0.747114
-0.747113
-0.747112
-0.850814
-0.850815
-0.850816
-0.850817
-0.850818
-0.849684
-0.956365
-0.957539
-0.957562
-0.957586
-0.957609
-0.957634
-0.953955
-0.953955
-0.953956
-0.953956
-0.953957
-0.952461
-1.06171
-1.06206
-1.06213
-1.06219
-1.06226
-1.06232
-1.05458
-1.05458
-1.05458
-1.05458
-1.05458
-1.05338
-1.04658
-1.04774
-1.04774
-1.04774
-1.04774
-1.04774
-1.04281
-1.04281
-1.04281
-1.04281
-1.04281
-1.04224
-1.03945
-1.03971
-1.0397
-1.0397
-1.0397
-1.0397
-1.0379
-1.0379
-1.0379
-1.0379
-1.0379
-1.0378
-1.03691
-1.03693
-1.03693
-1.03693
-1.03693
-1.03693
-1.03644
-1.03644
-1.03644
-1.03644
-1.03644
-1.03645
-1.03623
-1.03621
-1.0362
-1.0362
-1.0362
-1.0362
-1.03608
-1.03608
-1.03609
-1.03609
-1.0361
-1.03613
-1.03619
-1.03616
-1.03616
-1.03615
-1.03615
-1.03615
-1.03637
-1.03637
-1.03637
-1.03638
-1.03637
-1.03636
-1.03669
-1.03675
-1.03675
-1.03675
-1.03675
-1.03675
-1.03738
-1.03738
-1.03739
-1.03738
-1.03739
-1.03725
-1.03818
-1.03842
-1.03842
-1.03842
-1.03842
-1.03842
-1.04
-1.04001
-1.04
-1.04001
-1.04001
-1.03961
-1.04156
-1.04222
-1.04222
-1.04221
-1.04222
-1.04221
-1.04503
-1.04503
-1.04503
-1.04503
-1.04503
-1.0439
-1.04731
-1.04859
-1.04859
-1.04859
-1.0486
-1.04859
-1.13718
-1.13718
-1.13718
-1.13718
-1.13719
-1.13823
-1.13592
-1.13349
-1.1324
-1.13149
-1.13073
-1.1301
-1.12979
-1.12977
-1.12978
-1.12976
-1.12977
-1.13037
-1.13037
-1.13038
-1.13038
-1.1304
-1.13113
-1.13111
-1.1311
-1.13109
-1.13109
-1.13195
-1.13195
-1.13197
-1.13199
-1.13201
-1.13307
-1.13304
-1.13301
-1.13299
-1.13298
-1.13509
-1.13509
-1.1351
-1.13512
-1.13514
-1.22034
-1.22032
-1.22031
-1.2203
-1.22029
-1.20691
-1.20693
-1.20695
-1.20697
-1.207
-1.2026
-1.20257
-1.20256
-1.20254
-1.20253
-1.19887
-1.19889
-1.1989
-1.19891
-1.19893
-1.19587
-1.19586
-1.19585
-1.19584
-1.19583
-1.19328
-1.19329
-1.19329
-1.19331
-1.19332
-1.19361
-1.1962
-1.19929
-1.203
-1.20745
-1.22275
-1.22548
-1.20735
-1.20303
-1.19944
-1.19645
-1.19394
-1.1307
-1.13134
-1.13211
-1.13303
-1.13414
-1.13703
-1.1376
-1.1344
-1.13334
-1.13245
-1.13171
-1.13108
-1.06654
-1.06511
-1.06339
-1.06132
-1.05884
-1.053
-0.965394
-0.989267
-0.99488
-0.999554
-1.00345
-1.00669
-1.00716
-1.00402
-1.00024
-0.995704
-0.990265
-0.96722
-0.90754
-0.931607
-0.93889
-0.944959
-0.950015
-0.954222
-0.910602
-0.905152
-0.898613
-0.890763
-0.881349
-0.852505
-0.807834
-0.842667
-0.854918
-0.865126
-0.873633
-0.880723
-0.865378
-0.857031
-0.847013
-0.834992
-0.820566
-0.785362
-0.784277
-0.819619
-0.834352
-0.846628
-0.856858
-0.86538
-0.880733
-0.873298
-0.864382
-0.853677
-0.840832
-0.805557
-0.805032
-0.839326
-0.852604
-0.863665
-0.872882
-0.880561
-0.880325
-0.872129
-0.862289
-0.85048
-0.836307
-0.802526
-0.798774
-0.796111
-0.795952
-0.795816
-0.795711
-0.795616
-0.834199
-0.849007
-0.861348
-0.871634
-0.8802
-0.880198
-0.871638
-0.861358
-0.849022
-0.834222
-0.834247
-0.849037
-0.861368
-0.871638
-0.880192
-0.880186
-0.871638
-0.861376
-0.849058
-0.834278
-0.834311
-0.84908
-0.861384
-0.871639
-0.880177
-0.880219
-0.871717
-0.861509
-0.849258
-0.834556
-0.871403
-0.883694
-0.893943
-0.902476
-0.909586
-0.909262
-0.902125
-0.893565
-0.883281
-0.870949
-0.870894
-0.883247
-0.893546
-0.902122
-0.909264
-0.909262
-0.902112
-0.893521
-0.883222
-0.870854
-0.870815
-0.883197
-0.893507
-0.902104
-0.909262
-0.909263
-0.902097
-0.893498
-0.883177
-0.87079
-0.837171
-0.837295
-0.837439
-0.837608
-0.837816
-0.840856