/*--------------------------------*- C++ -*----------------------------------*\
| =========                 |                                                 |
| \\      /  F ield         | OpenFOAM: The Open Source CFD Toolbox           |
|  \\    /   O peration     | Version:  2212                                  |
|   \\  /    A nd           | Website:  www.openfoam.com                      |
|    \\/     M anipulation  |                                                 |
\*---------------------------------------------------------------------------*/
FoamFile
{
    version     2.0;
    format      ascii;
    arch        "LSB;label=32;scalar=64";
    class       volScalarField;
    location    "260";
    object      T;
}
// * * * * * * * * * * * * * * * * * * * * * * * * * * * * * * * * * * * * * //

dimensions      [0 0 0 1 0 0 0];

internalField   nonuniform List<scalar> 
248319
(
309.504
309.352
308.623
308.298
308.015
307.834
307.778
307.895
307.967
308.183
308.507
308.894
309.466
309.234
308.607
308.218
307.929
307.761
307.722
308.184
308.265
308.424
308.601
308.792
309.019
308.995
308.797
308.668
308.533
308.421
308.38
307.999
307.991
308.046
308.142
308.312
309.111
309.431
308.74
308.356
308.068
307.932
307.908
308.156
308.229
308.426
308.696
308.986
309.554
309.789
309.391
309.088
308.777
308.54
308.456
308.479
308.55
308.771
309.084
309.415
309.974
309.711
309.052
308.741
308.457
308.251
308.172
308.136
308.201
308.403
308.708
309.062
310.085
309.749
308.832
308.413
308.089
307.889
307.825
307.656
307.693
307.859
308.171
308.623
309.468
309.255
308.989
308.767
308.547
308.334
308.203
308.665
308.809
308.992
309.166
309.332
309.497
309.384
309.177
309.016
308.871
308.723
308.624
308.636
308.737
308.875
309.018
309.167
309.32
309.322
308.989
308.673
308.349
308.12
308.049
308.39
308.468
308.685
308.945
309.161
309.412
309.511
309.376
309.204
308.952
308.709
308.617
308.798
308.895
309.135
309.357
309.494
309.58
309.899
309.654
309.384
309.065
308.789
308.687
308.73
308.822
309.114
309.498
309.873
310.251
310.71
310.051
309.592
309.149
308.836
308.731
308.467
308.543
308.782
309.135
309.522
310.372
310.415
309.499
309.089
308.729
308.49
308.409
308.015
308.079
308.275
308.577
308.944
310.083
309.74
308.61
308.211
307.916
307.735
307.677
307.542
307.587
307.75
308.036
308.468
309.496
309.351
309.052
308.803
308.548
308.312
308.179
308.523
308.7
308.929
309.147
309.347
309.538
309.528
309.349
309.166
308.958
308.731
308.545
308.631
308.788
308.969
309.134
309.283
309.419
309.261
309.131
309.005
308.861
308.699
308.553
308.522
308.616
308.738
308.862
308.989
309.117
309.095
308.836
308.576
308.297
308.086
308.018
308.206
308.275
308.467
308.699
308.902
309.142
309.184
309.05
308.881
308.656
308.442
308.36
308.491
308.575
308.779
308.969
309.104
309.195
309.257
309.164
309.051
308.886
308.691
308.596
308.911
309.019
309.268
309.487
309.618
309.688
309.991
309.774
309.538
309.242
308.957
308.842
308.922
309.054
309.403
309.798
310.144
310.434
310.945
310.543
310.04
309.51
309.104
308.961
308.989
309.108
309.506
310.101
310.691
310.973
310.688
310.077
309.577
309.118
308.819
308.724
308.762
308.846
309.123
309.571
310.071
310.7
310.465
309.377
308.978
308.645
308.429
308.358
307.873
307.935
308.124
308.421
308.803
310.188
309.725
308.407
308.009
307.729
307.559
307.504
307.415
307.453
307.611
307.894
308.311
309.466
309.401
309.068
308.796
308.524
308.277
308.138
308.401
308.604
308.878
309.145
309.388
309.614
309.637
309.431
309.203
308.94
308.659
308.438
308.424
308.642
308.918
309.174
309.393
309.574
309.412
309.264
309.098
308.903
308.685
308.501
308.441
308.613
308.817
308.998
309.151
309.278
309.081
308.973
308.866
308.741
308.597
308.465
308.406
308.487
308.59
308.695
308.803
308.914
308.873
308.649
308.426
308.185
307.999
307.941
308.041
308.103
308.272
308.478
308.663
308.891
308.908
308.786
308.63
308.425
308.235
308.164
308.271
308.345
308.525
308.692
308.806
308.881
308.884
308.832
308.75
308.613
308.444
308.361
308.48
308.568
308.732
308.859
308.937
308.971
309.425
309.327
309.219
309.06
308.866
308.764
308.981
309.104
309.372
309.616
309.79
309.898
310.115
309.904
309.67
309.371
309.075
308.953
309.029
309.17
309.529
309.93
310.28
310.568
311.075
310.736
310.248
309.705
309.274
309.12
309.199
309.336
309.775
310.397
310.96
311.162
311.093
311.212
310.771
310.032
309.552
309.419
309.086
309.199
309.583
310.228
310.832
310.912
310.87
311.298
311.245
310.837
310.403
310.256
309.476
309.583
309.909
310.391
310.796
310.815
310.684
309.795
309.362
308.99
308.757
308.684
307.866
307.928
308.127
308.463
308.919
310.504
309.96
308.317
307.863
307.564
307.39
307.335
307.316
307.348
307.498
307.778
308.211
309.594
309.571
309.162
308.845
308.546
308.283
308.134
308.359
308.606
308.938
309.264
309.559
309.826
309.873
309.632
309.349
309.019
308.67
308.397
308.377
308.644
308.988
309.315
309.596
309.826
309.746
309.493
309.21
308.892
308.567
308.323
308.36
308.565
308.828
309.076
309.294
309.479
309.378
309.182
308.967
308.729
308.485
308.297
308.355
308.514
308.702
308.872
309.018
309.143
308.918
308.823
308.728
308.617
308.489
308.371
308.295
308.364
308.45
308.539
308.634
308.735
308.673
308.465
308.271
308.065
307.905
307.857
307.894
307.948
308.092
308.272
308.44
308.673
308.684
308.544
308.392
308.208
308.046
307.987
308.06
308.122
308.28
308.432
308.544
308.633
308.58
308.523
308.447
308.329
308.184
308.115
308.174
308.247
308.375
308.468
308.523
308.549
308.659
308.603
308.531
308.432
308.296
308.212
308.612
308.713
308.896
309.047
309.165
309.255
309.805
309.655
309.518
309.332
309.11
308.994
309.139
309.271
309.57
309.852
310.064
310.226
310.316
310.079
309.809
309.465
309.145
309.024
309.039
309.167
309.527
309.969
310.384
310.778
311.341
310.86
310.291
309.711
309.289
309.148
309.242
309.373
309.8
310.443
311.08
311.421
311.381
311.361
310.875
310.157
309.67
309.533
311.256
311.352
311.552
311.715
311.708
311.266
310.977
311.444
311.531
311.392
311.148
311.03
311.674
311.717
311.784
311.717
311.427
310.822
310.778
311.397
311.615
311.624
311.509
311.415
310.728
310.84
311.115
311.334
311.328
310.873
310.891
310.768
310.38
309.984
309.717
309.626
308.251
308.314
308.547
308.964
309.517
310.795
310.428
308.414
307.843
307.492
307.308
307.251
307.297
307.318
307.459
307.743
308.225
310.039
310.027
309.546
309.18
308.851
308.573
308.405
308.647
308.952
309.339
309.711
310.035
310.292
310.309
310.121
309.814
309.431
309.015
308.675
308.638
308.963
309.375
309.763
310.083
310.294
310.277
309.954
309.616
309.235
308.851
308.562
308.485
308.729
309.078
309.438
309.768
310.225
309.643
309.356
309.074
308.77
308.47
308.254
308.192
308.378
308.649
308.93
309.198
309.52
309.266
309.061
308.849
308.622
308.394
308.225
308.271
308.417
308.591
308.752
308.894
309.02
308.786
308.695
308.606
308.504
308.387
308.28
308.194
308.253
308.327
308.404
308.488
308.583
308.506
308.298
308.127
307.951
307.817
307.778
307.774
307.818
307.94
308.095
308.251
308.5
308.523
308.346
308.195
308.028
307.891
307.843
307.892
307.944
308.083
308.233
308.361
308.493
308.438
308.337
308.238
308.118
307.987
307.927
307.953
308.017
308.131
308.221
308.291
308.351
308.296
308.255
308.197
308.118
308.006
307.936
308.268
308.411
308.686
308.874
308.911
308.865
309.37
309.364
309.273
309.024
308.701
308.538
308.873
309.056
309.45
309.81
310.02
310.088
310.65
310.479
310.169
309.731
309.308
309.135
309.049
309.184
309.581
310.106
310.596
310.922
311.318
310.836
310.246
309.635
309.182
309.027
309.042
309.17
309.541
310.032
310.555
311.101
311.827
311.175
310.51
309.865
309.414
309.266
309.451
309.592
310.053
310.753
311.457
311.897
311.909
311.881
311.197
310.401
309.908
309.774
311.552
311.665
311.937
312.262
312.435
311.855
311.708
312.674
312.667
312.525
312.37
312.304
311.818
311.868
311.969
311.978
311.756
311.107
310.958
311.744
312.118
312.237
312.202
312.164
311.98
312.002
311.99
311.794
311.364
310.689
310.71
311.414
311.76
311.893
311.869
311.834
311.553
311.624
311.714
311.695
311.516
310.893
311.02
311.406
311.347
311.117
310.888
310.796
309.268
309.342
309.612
310.074
310.607
311.033
310.753
308.802
308.117
307.699
307.506
307.449
307.429
307.42
307.536
307.828
308.404
310.611
310.746
310.353
310.055
309.813
309.666
309.628
309.911
310.086
310.329
310.545
310.689
310.77
310.692
310.692
310.615
310.415
310.135
309.904
309.805
310.047
310.361
310.6
310.7
310.689
310.755
310.692
310.516
310.227
309.903
309.689
309.623
309.797
310.099
310.404
310.631
310.831
310.922
310.582
310.335
310.052
309.801
309.678
308.41
308.615
308.92
309.245
309.558
310.146
310.096
309.377
309.077
308.79
308.534
308.385
308.123
308.285
308.525
308.781
309.031
309.388
309.156
308.941
308.734
308.518
308.306
308.154
308.193
308.329
308.494
308.648
308.789
308.92
308.688
308.599
308.51
308.411
308.299
308.197
308.107
308.161
308.229
308.3
308.382
308.479
308.388
308.164
308.007
307.855
307.742
307.711
307.694
307.731
307.833
307.972
308.122
308.394
308.452
308.233
308.071
307.914
307.797
307.758
307.802
307.846
307.97
308.128
308.287
308.481
308.462
308.293
308.15
308.011
307.883
307.83
307.831
307.892
308.005
308.112
308.216
308.335
308.083
308.024
307.965
307.89
307.787
307.722
307.989
308.124
308.375
308.549
308.584
308.531
310.79
310.246
309.552
308.873
308.353
308.154
308.421
308.626
309.161
309.828
310.472
310.958
311.263
310.754
310.111
309.441
308.891
308.68
308.939
309.15
309.713
310.404
311.066
311.633
311.735
311.153
310.511
309.835
309.308
309.13
308.951
309.085
309.495
310.088
310.722
311.374
311.298
310.761
310.143
309.523
309.083
308.944
309.049
309.178
309.613
310.27
310.972
312.055
311.974
311.322
310.599
309.883
309.379
309.216
309.364
309.508
309.987
310.724
311.49
312.058
312.118
311.881
311.124
310.279
309.787
309.655
311.609
311.755
312.098
312.432
312.606
312.072
311.843
312.827
312.84
312.736
312.603
312.545
312.841
312.863
312.917
312.955
312.869
311.585
311.545
312.753
312.835
312.785
312.71
312.676
312.834
312.851
312.888
312.902
312.765
311.406
310.851
311.722
312.194
312.402
312.438
312.426
312.22
312.22
312.138
311.847
311.327
310.608
310.684
311.43
311.86
312.077
312.114
312.099
311.951
311.976
311.986
311.882
311.624
310.93
311.122
311.686
311.775
311.742
311.643
311.584
310.535
310.616
310.862
311.184
311.384
311.22
311.101
309.784
308.999
308.49
308.26
308.195
307.717
307.689
307.783
308.1
308.828
311.042
311.219
311.023
310.945
310.912
310.886
310.859
311.039
311.052
311.079
311.099
311.108
311.097
310.987
311.066
311.106
311.113
311.091
311.072
311.084
311.113
311.147
311.148
311.107
311.018
311.153
311.197
311.207
311.18
311.128
311.09
311.127
311.161
311.22
311.266
311.286
311.309
311.503
311.393
311.348
311.292
311.233
311.204
311.305
311.323
311.369
311.419
311.47
311.626
311.037
310.619
310.4
310.166
309.977
309.885
310.106
310.166
310.298
310.463
310.626
310.977
310.118
309.313
309.038
308.796
308.603
308.507
308.059
308.2
308.414
308.646
308.877
309.26
309.055
308.83
308.629
308.424
308.226
308.088
308.125
308.255
308.414
308.567
308.709
308.847
308.638
308.544
308.449
308.346
308.231
308.128
308.039
308.096
308.166
308.24
308.325
308.431
308.34
308.079
307.927
307.79
307.693
307.667
307.676
307.706
307.795
307.927
308.081
308.379
308.497
308.235
308.054
307.895
307.789
307.757
307.812
307.851
307.976
308.152
308.352
308.606
308.625
308.392
308.2
308.033
307.898
307.846
307.824
307.883
307.995
308.113
308.243
308.401
307.846
307.785
307.737
307.676
307.593
307.539
307.745
307.867
308.103
308.287
308.358
308.332
310.733
310.089
309.328
308.621
308.11
307.929
308.09
308.277
308.921
309.954
311.132
312.149
312.133
311.163
310.089
309.114
308.462
308.256
308.489
308.704
309.36
310.294
311.277
312.147
312.175
311.368
310.466
309.577
308.931
308.718
308.896
309.096
309.703
310.547
311.404
312.162
311.983
311.088
310.241
309.565
309.118
308.984
308.943
309.073
309.489
310.103
310.813
311.48
311.472
310.96
310.366
309.742
309.242
309.043
309.073
309.246
309.768
310.523
311.375
312.4
313.012
311.493
310.507
309.728
309.245
309.095
309.154
309.277
309.678
310.314
311.006
312.506
312.799
311.556
310.704
309.94
309.544
309.433
311.469
311.625
312.034
312.436
312.74
313.061
313.065
313.049
312.97
312.816
312.67
312.611
312.922
312.948
313.013
313.075
313.087
313.003
312.94
313.095
313.095
313.043
312.996
312.982
312.917
312.93
312.967
312.987
312.84
311.362
311.211
312.754
312.989
312.972
312.929
312.917
312.88
312.891
312.92
312.929
312.751
311.333
310.801
311.721
312.251
312.501
312.575
312.58
312.39
312.372
312.245
311.903
311.331
310.589
310.709
311.472
311.952
312.216
312.294
312.296
312.194
312.203
312.176
312.028
311.726
311.004
311.239
311.865
312.01
312.043
312.002
311.972
311.383
311.448
311.591
311.733
311.776
311.385
311.426
310.887
310.339
309.802
309.52
309.439
308.383
308.374
308.486
308.875
309.841
311.431
311.573
311.478
311.463
311.485
311.505
311.514
311.627
311.576
311.531
311.485
311.437
311.375
311.259
311.386
311.483
311.557
311.614
311.666
311.707
311.668
311.626
311.56
311.465
311.328
311.518
311.618
311.679
311.715
311.733
311.754
311.823
311.812
311.814
311.806
311.782
311.74
312.002
311.962
311.954
311.942
311.929
311.932
311.849
311.839
311.845
311.857
311.87
311.916
310.408
310.401
310.394
310.384
310.395
310.447
310.987
310.974
310.988
311.011
311.03
311.036
309.71
309.663
309.651
309.634
309.639
309.69
309.97
309.987
310.056
310.149
310.235
310.378
310.076
309.358
309.128
308.939
308.799
308.733
308.021
308.133
308.319
308.528
308.742
309.189
308.966
308.728
308.534
308.341
308.157
308.031
308.069
308.2
308.359
308.513
308.658
308.803
308.637
308.535
308.43
308.316
308.191
308.077
307.997
308.067
308.148
308.234
308.331
308.453
308.377
308.066
307.906
307.772
307.685
307.662
307.734
307.76
307.843
307.98
308.148
308.47
308.671
308.369
308.162
307.986
307.877
307.848
307.921
307.966
308.111
308.319
308.561
308.853
308.873
308.605
308.377
308.179
308.022
307.957
307.92
307.981
308.086
308.192
308.309
308.455
307.522
307.493
307.482
307.463
307.427
307.401
307.539
307.638
307.842
308.033
308.153
308.187
310.542
309.807
309.009
308.319
307.861
307.717
307.786
307.858
308.287
309.037
310.117
311.366
311.08
309.668
308.805
308.394
308.692
310.069
321.189
326.085
337.245
365.72
444.806
427.497
343.893
320.944
314.939
313.038
308.721
309.147
310.611
323.843
405.071
379.173
315.498
309.097
308.69
308.707
309.479
309.377
309.436
313.232
364.538
372.102
315.536
310.887
310.8
310.921
312.519
312.206
312.416
321.391
394.327
399.232
323.149
312.995
312.634
312.86
313.018
313.258
313.125
312.948
313.308
323.081
398.387
381.748
317.922
311.969
311.87
312.035
310.682
310.485
310.762
317.279
382.968
398.504
320.597
310.512
309.73
309.654
309.707
310.251
312.821
333.083
419.878
437.17
353.248
325.336
317.192
314.955
322.443
328.525
341.577
373.361
450.216
452.944
373.572
339.996
326.851
320.861
314.799
317.374
326.087
355.762
442.563
427.618
336.84
314.287
310.582
309.943
309.726
309.83
310.984
324.013
408.57
392.56
319.616
311.053
310.617
310.722
312.014
311.755
311.91
318.921
386.5
397.492
323.019
313.358
312.98
313.124
313.197
312.2
310.919
309.793
309.189
310.185
312.081
308.192
308.361
309.049
310.224
311.501
312.467
312.442
311.55
310.382
309.25
308.519
308.288
308.443
308.64
309.311
310.367
311.464
312.308
312.132
311.284
310.267
309.31
308.707
308.524
308.614
308.744
309.196
309.949
310.839
311.923
311.395
310.541
309.873
309.296
308.904
308.761
308.901
309.103
309.606
310.275
310.988
311.629
311.29
310.548
309.871
309.282
308.901
308.781
308.849
308.97
309.389
310.062
310.858
312.188
312.463
311.274
310.376
309.622
309.131
308.976
308.988
309.114
309.559
310.306
311.23
312.853
312.898
311.222
310.272
309.582
309.199
309.084
309.273
309.387
309.806
310.625
311.674
313.286
313.395
312.788
312.359
311.8
311.327
311.157
312.53
312.582
312.724
312.923
313.179
313.542
313.724
313.343
313.027
312.839
312.765
312.745
312.666
312.678
312.769
313.054
313.449
313.929
314.131
313.551
313.075
312.672
312.499
312.473
312.949
312.968
313.032
313.107
313.103
312.886
312.869
313.139
313.129
313.001
312.897
312.869
312.869
312.887
312.96
313
312.703
311.15
311.325
312.762
312.954
312.919
312.876
312.865
312.663
312.651
312.569
312.316
311.763
310.819
310.636
311.39
311.983
312.336
312.479
312.505
312.44
312.427
312.331
312.055
311.558
310.79
311.119
311.845
312.161
312.325
312.37
312.369
312.227
312.243
312.253
312.19
312.02
311.384
311.56
312.03
312.046
311.969
311.873
311.829
310.682
310.757
310.975
311.307
311.597
311.688
311.775
311.23
310.6
310.127
309.902
309.858
312.037
312.006
311.966
311.922
311.89
311.884
311.639
311.742
311.831
311.917
312.002
312.086
312.132
312.043
311.94
311.821
311.685
311.525
311.626
311.797
311.928
312.035
312.118
312.187
312.255
312.211
312.159
312.088
311.997
311.857
312.126
312.214
312.26
312.293
312.316
312.34
312.459
312.447
312.442
312.436
312.428
312.425
311.821
311.777
311.763
311.752
311.753
311.775
308.929
308.87
308.888
308.95
309.024
309.45
308.723
307.508
307.22
306.985
306.83
306.802
308.129
308.084
308.119
308.202
308.303
308.846
308.121
307.394
307.078
306.789
306.583
306.521
307.972
307.94
307.993
308.092
308.199
308.487
309.381
309.343
309.294
309.237
309.204
309.226
308.831
308.87
308.969
309.108
309.272
309.754
309.161
308.659
308.461
308.278
308.124
308.037
307.985
308.103
308.274
308.456
308.639
308.889
308.786
308.635
308.487
308.329
308.165
308.03
308.051
308.183
308.325
308.454
308.571
308.68
308.54
308.402
308.287
308.184
308.084
307.991
307.71
307.733
307.818
307.958
308.137
308.492
308.647
308.318
308.132
307.979
307.893
307.87
308.012
308.044
308.171
308.382
308.623
308.931
309.146
308.858
308.588
308.342
308.161
308.1
308.111
308.197
308.387
308.611
308.85
309.11
308.458
308.357
308.27
308.168
308.054
307.984
307.384
307.373
307.333
307.265
307.209
307.171
307.961
307.899
307.768
307.611
307.47
307.402
307.528
307.62
307.957
308.525
309.269
310.064
310.268
310.253
310.194
310.324
314.924
372.323
367.376
385.608
410.827
431.669
446.033
364.401
347.439
327.988
316.083
313.052
309.033
308.814
311.091
322.481
335.073
324.509
315.455
309.034
308.364
308.904
308.95
308.374
308.532
313.733
320.118
309.388
308.338
308.106
308.395
309.046
308.589
308.071
307.873
308.043
308.592
316.915
313.638
308.676
308.136
308.501
308.492
308.177
309.621
316.402
321.883
332.229
325.202
314.581
308.968
308.76
314.314
320.044
337.829
354.424
360.526
434.435
439.166
425.633
404.327
378.71
381.048
315.72
309.958
309.724
309.731
309.706
311.338
311.367
311.195
311.487
321.253
401.36
390.393
319.75
311.843
311.697
311.885
311.892
312.713
313.175
313.243
313.17
314.494
330.817
414.119
421.493
334.149
315.191
313.456
313.531
313.598
313.628
313.625
313.613
315.004
331.705
416.746
411.283
329.27
314.83
313.781
313.778
313.781
313.71
313.702
313.72
314.909
329.942
411.7
398.995
323.653
313.371
312.892
312.993
313.041
312.132
311.934
311.737
311.941
319.949
391.301
396.793
411.551
430.112
443.379
448.618
370.148
353.571
336.511
325.133
320.698
311.156
311.071
313.665
322.835
332.597
321.48
315.343
310.366
309.852
310.654
310.745
309.699
309.676
313.138
317.016
310.224
309.442
309.049
309.755
310.909
311.438
310.236
309.077
308.345
308.123
308.244
308.468
309.191
310.295
311.412
312.219
312.029
311.185
310.102
309.092
308.472
308.284
308.353
308.494
309.008
309.884
310.889
311.823
311.634
310.53
309.675
308.975
308.555
308.425
308.592
308.704
309.061
309.604
310.232
311.153
311.749
310.464
309.712
309.069
308.679
308.556
308.701
308.823
309.245
309.926
310.739
311.944
312.117
311.064
310.183
309.439
308.955
308.8
308.745
308.865
309.284
309.996
310.892
312.115
312.276
310.771
309.977
309.333
308.95
308.833
308.897
308.99
309.311
309.868
310.636
312.158
312.52
312
311.484
310.866
310.429
310.285
310.701
310.861
311.334
311.964
312.42
313.088
313.258
312.795
312.637
312.505
312.397
312.349
312.451
312.454
312.478
312.578
312.804
313.455
313.699
312.862
312.437
312.239
312.204
312.211
311.882
311.889
311.998
312.364
312.993
313.955
314.183
313.143
312.387
311.824
311.603
311.568
312.253
312.309
312.574
313.056
313.661
314.316
314.494
313.768
313.031
312.428
312.104
312.02
312.743
312.794
312.969
313.164
313.199
312.905
311.186
312.735
313.04
312.943
312.815
312.781
312.805
312.822
312.901
312.99
312.82
311.398
310.915
311.868
312.41
312.627
312.684
312.692
312.58
312.554
312.426
312.095
311.508
310.754
310.927
311.695
312.18
312.433
312.521
312.535
312.494
312.489
312.442
312.291
311.988
311.28
311.563
312.176
312.342
312.411
312.416
312.408
312.141
312.17
312.232
312.27
312.227
311.753
311.922
312.006
311.844
311.637
311.487
311.434
311.295
311.329
311.466
311.68
311.932
312.048
312.157
312.211
312.266
312.324
312.375
312.414
312.44
312.344
312.239
312.13
312.018
311.896
311.788
311.972
312.128
312.268
312.39
312.488
312.554
312.479
312.379
312.253
312.101
311.909
312.17
312.335
312.44
312.524
312.584
312.628
312.713
312.692
312.667
312.629
312.578
312.465
312.77
312.791
312.801
312.807
312.811
312.817
310.92
310.893
310.916
310.972
311.04
311.323
308.982
307.865
307.661
307.493
307.393
307.408
306.546
306.682
306.986
307.403
307.897
309.292
308.576
308.017
307.438
306.869
306.409
306.172
306
306.185
306.571
307.064
307.577
308.288
307.162
306.886
306.581
306.218
305.86
305.646
305.722
305.863
306.141
306.453
306.738
307.148
307.468
307.149
306.988
306.821
306.694
306.667
308.188
308.16
308.192
308.251
308.297
308.317
309.145
308.924
308.824
308.732
308.668
308.656
308.064
308.131
308.257
308.415
308.589
309.067
308.828
308.571
308.399
308.226
308.064
307.949
308.011
308.155
308.327
308.489
308.639
308.789
308.754
308.64
308.514
308.37
308.208
308.052
308.027
308.147
308.27
308.391
308.521
308.67
308.658
308.28
308.084
307.93
307.843
307.817
308.059
308.084
308.181
308.35
308.55
308.858
309.187
308.915
308.66
308.423
308.266
308.225
308.312
308.393
308.603
308.864
309.125
309.378
309.235
309.026
308.818
308.601
308.4
308.301
307.994
308.058
308.158
308.236
308.297
308.348
306.914
307.017
307.157
307.3
307.396
307.43
307.352
307.379
307.445
307.533
307.631
307.686
309.428
308.681
308.059
307.651
307.441
307.381
307.313
307.339
307.452
307.715
308.207
308.859
309.199
309.242
309.272
309.699
317.889
394.91
398.534
423.16
433.347
427.735
414.062
345.986
350.842
347.105
329.17
318.625
308.881
310.146
317.801
323.833
324.619
316.819
315.071
310.033
308.262
308.225
308.167
307.977
308.582
311.341
312.227
308.019
307.761
307.651
307.777
308.177
307.858
307.568
307.493
307.555
307.649
309.665
309.998
308.947
308.34
308.123
309.297
310.536
312.067
313.513
312.689
317.975
320.824
321.708
318.385
314.623
337.685
346.854
350.239
342.419
333.737
398.547
413.692
429.646
432.419
422.708
414.061
331.822
313.136
309.584
308.991
308.774
310.476
310.903
312.333
318.268
342.033
424.082
412.102
326.826
311.696
310.694
310.858
310.832
312.427
312.403
312.916
317.611
341.709
427.495
418.586
333.063
314.564
312.546
312.653
312.566
312.784
312.903
312.831
313.77
327.784
408.493
417.642
335.214
315.915
313.545
313.144
312.78
313.111
313.459
313.862
316.744
338.347
422.032
432.783
344.127
318.005
314.259
313.896
313.804
313.83
313.954
314.244
317.04
339.342
426.422
417.614
333.883
316.213
314.42
314.3
314.264
314.375
314.401
314.495
316.175
333.254
415.861
422.673
336.662
316.701
314.521
314.378
314.293
313.549
313.604
313.677
315.302
332.987
418.371
407.345
326.225
313.577
312.813
312.873
312.878
312.067
310.99
309.845
309.002
308.924
309.112
314.1
318.02
328.497
362.183
437.634
439.562
354.751
321.903
314.195
312.095
309.636
310.49
314.874
341.109
436.792
423.937
329.954
311.651
309.929
309.749
310.792
310.71
311.493
324.306
410.039
403.47
323.009
312.166
311.719
311.899
311.865
311.687
312.692
328.416
418.947
424.74
334.253
313.714
310.974
310.822
309.913
310.797
315.788
341.656
434.925
439.731
349.376
318.449
311.546
309.913
311.489
313.771
321.896
351.951
430.527
423.395
349.998
323.58
315.349
312.037
308.85
308.803
308.961
309.765
310.926
311.997
311.783
311.185
310.259
309.24
308.439
308.117
308.201
308.517
309.345
310.401
311.313
311.878
311.665
311.027
310.092
309.112
308.417
308.174
308.216
308.395
308.977
309.867
310.801
311.492
311.141
310.44
309.733
309.071
308.598
308.42
308.531
308.76
309.299
309.999
310.712
311.305
311.18
310.391
309.708
309.108
308.69
308.534
308.66
308.864
309.341
309.971
310.663
311.347
311.601
310.718
309.919
309.215
308.74
308.583
308.469
308.597
309.02
309.681
310.441
311.275
311.44
310.222
309.506
308.917
308.563
308.453
308.598
308.713
309.091
309.733
310.533
311.773
311.556
310.168
309.504
308.973
308.653
308.55
308.725
308.829
309.168
309.751
310.53
311.987
312.021
311.69
311.062
310.349
309.928
309.803
311.703
311.783
311.959
312.025
311.95
312.061
312.69
312.52
312.388
312.274
312.171
312.12
312.197
312.199
312.216
312.309
312.547
312.869
313.152
312.631
312.177
311.949
311.905
311.908
311.557
311.573
311.708
312.124
312.766
313.511
313.898
312.813
312.103
311.529
311.282
311.234
310.949
311.024
311.361
312.033
312.828
314.288
314.383
313.289
312.401
311.721
311.375
311.305
311.079
311.183
311.596
312.389
313.438
314.572
314.656
313.859
312.988
312.258
311.859
311.763
312.583
312.671
312.937
313.223
313.311
313.015
311.322
312.85
313.109
312.923
312.719
312.66
312.707
312.738
312.869
313.039
312.932
311.554
311.088
312.032
312.53
312.677
312.684
312.68
312.616
312.6
312.517
312.246
311.693
310.943
311.126
311.885
312.327
312.524
312.58
312.59
312.568
312.564
312.532
312.42
312.157
311.49
311.775
312.327
312.466
312.519
312.527
312.524
312.352
312.372
312.41
312.43
312.386
311.967
312.149
312.257
312.142
311.99
311.877
311.838
311.821
311.841
311.933
312.075
312.243
312.293
312.411
312.479
312.544
312.604
312.654
312.686
312.713
312.625
312.52
312.406
312.285
312.151
312.049
312.243
312.408
312.554
312.676
312.765
312.832
312.768
312.672
312.542
312.383
312.181
312.458
312.633
312.739
312.819
312.871
312.902
312.974
312.967
312.953
312.925
312.88
312.761
313.042
313.055
313.056
313.053
313.047
313.043
309.415
309.37
309.442
309.585
309.767
310.668
309.588
308.153
307.835
307.576
307.393
307.319
306.843
307.032
307.425
307.969
308.615
309.933
308.807
308.282
307.699
307.126
306.668
306.43
306.003
306.171
306.493
306.851
307.157
307.366
307.18
306.959
306.671
306.315
305.967
305.762
305.446
305.581
305.838
306.111
306.346
306.535
306.455
306.28
306.052
305.77
305.48
305.3
305.327
305.486
305.769
306.057
306.299
306.521
306.765
306.493
306.317
306.123
305.954
305.885
307.271
307.257
307.307
307.379
307.437
307.476
308.475
308.436
308.384
308.326
308.289
308.297
308.051
308.105
308.21
308.342
308.485
308.855
308.779
308.519
308.36
308.197
308.041
307.926
308.011
308.168
308.348
308.513
308.659
308.803
308.842
308.733
308.603
308.448
308.267
308.085
308.099
308.25
308.394
308.528
308.666
308.817
308.834
308.46
308.254
308.089
307.997
307.969
308.266
308.293
308.399
308.577
308.776
309.052
309.359
309.145
308.911
308.668
308.489
308.434
308.517
308.611
308.829
309.072
309.288
309.473
309.213
309.091
308.953
308.778
308.586
308.482
307.985
308.023
308.072
308.095
308.102
308.099
306.797
306.954
307.144
307.329
307.458
307.507
307.352
307.346
307.338
307.347
307.389
307.419
307.188
307.194
307.219
307.289
307.361
307.393
307.291
307.29
307.32
307.454
307.808
308.338
307.878
307.469
307.274
307.253
307.288
307.309
307.264
307.255
307.31
307.464
307.726
308.369
308.903
308.026
307.569
307.284
307.218
307.22
307.425
307.482
307.846
308.734
309.833
317.883
314.406
310.957
308.91
308.089
309.616
311.207
314.83
320.861
326.58
342.548
333.8
323.918
317.537
315.589
344.641
345.017
353.348
364.95
375.211
450.399
446.368
440.83
431.453
431.955
441.354
429.005
425.015
430.127
436.364
346.923
340.823
338.057
341.505
353.686
317.36
314.41
314.254
315.753
321.4
317.43
313.21
310.694
309.381
309.267
307.903
308.191
309.459
311.821
315.312
310.248
308.69
307.757
307.485
307.469
307.304
307.229
307.321
307.709
308.48
311.295
315.258
326.429
332.785
342.562
368.044
445.723
451.71
379.621
354.329
343.195
335.543
320.516
315.855
326.732
338.121
357.51
392.419
458.226
439.655
364.057
332.953
320.032
314.456
310.952
313.73
320.557
328.807
345.457
379.913
451.402
437.513
358.176
328.084
317.61
314.049
312.41
314.117
317.92
323.876
337.959
371.618
447.032
437.23
354.016
324.501
316.128
313.899
312.985
312.793
313.258
314.005
318.462
342.643
428.211
431.458
347.104
320.616
314.683
313.246
312.474
312.417
312.91
313.575
316.734
337.982
420.072
423.099
340.129
317.339
313.886
313.259
312.783
313.692
313.864
314.362
318.466
345.229
433.109
426.111
339.488
317.153
314.305
313.958
313.778
314.579
314.615
314.734
316.391
333.376
416.279
415.746
333.591
316.659
315.013
314.94
314.927
314.991
315.021
315.143
317.446
337.971
424.32
429.943
341.976
318.301
315.269
315.098
315.12
314.386
314.386
314.554
317.356
340.147
427.862
421.382
335.073
315.638
313.656
313.586
313.608
312.883
312.822
312.769
313.857
328.831
413.321
414.168
329.764
313.963
312.71
312.712
312.691
311.844
310.867
309.754
308.891
308.498
308.356
309.615
311.671
316.576
334.25
402.287
407.127
337.585
317.057
311.611
309.725
309.401
310.791
316.795
342.588
421.906
432.127
343.503
315.715
310.553
309.782
310.766
310.912
313.838
337.685
430.606
423.439
331.225
313.015
311.66
311.764
311.72
311.973
315.595
339.502
431.276
435.368
349.961
320.532
312.869
311.135
310.126
312.018
319.712
348.105
429.27
413.318
338.091
316.07
310.595
309.251
309.004
310.283
313.989
328.926
393.888
387.974
324.914
312.622
309.758
308.676
308.194
308.385
308.842
309.743
310.849
311.788
311.566
310.91
310.065
309.173
308.43
308.112
308.122
308.401
309.144
310.093
310.939
311.535
311.492
310.967
310.13
309.175
308.435
308.151
308.092
308.256
308.816
309.712
310.636
311.268
310.851
310.073
309.428
308.848
308.44
308.277
308.397
308.642
309.206
309.922
310.621
311.16
311.038
310.627
309.972
309.255
308.698
308.488
308.544
308.734
309.274
309.99
310.679
311.17
311.336
310.739
309.998
309.259