/*--------------------------------*- C++ -*----------------------------------*\
| =========                 |                                                 |
| \\      /  F ield         | OpenFOAM: The Open Source CFD Toolbox           |
|  \\    /   O peration     | Version:  2212                                  |
|   \\  /    A nd           | Website:  www.openfoam.com                      |
|    \\/     M anipulation  |                                                 |
\*---------------------------------------------------------------------------*/
FoamFile
{
    version     2.0;
    format      ascii;
    arch        "LSB;label=32;scalar=64";
    class       volScalarField;
    location    "270";
    object      p;
}
// * * * * * * * * * * * * * * * * * * * * * * * * * * * * * * * * * * * * * //

dimensions      [0 2 -2 0 0 0 0];

internalField   nonuniform List<scalar> 
248319
(
0
0.0192808
0.0402704
0.0499122
0.057952
0.0646547
0.0702484
0.10936
0.103294
0.0960208
0.0872984
0.0768392
0.0510497
0.049838
0.0761409
0.0872743
0.0965704
0.104328
0.110799
0.0812605
0.0763906
0.0706022
0.0636743
0.0553484
0.033096
0.0137216
0.0280087
0.0342213
0.0395212
0.0440858
0.0480596
0.0626214
0.0577838
0.0519864
0.0450478
0.0367394
0.0196807
-0.0539515
-0.0471952
-0.0434507
-0.0403272
-0.0377067
-0.035531
-0.0212301
-0.0246978
-0.0288563
-0.0338341
-0.0397994
-0.0507606
-0.0555456
-0.0402185
-0.0334762
-0.0278611
-0.0231807
-0.019264
0.0634672
0.0574277
0.0501792
0.0414882
0.0310668
0.00054337
0.0309082
0.0593119
0.0692844
0.0775988
0.0845266
0.0903057
0.100137
0.09449
0.087715
0.079588
0.0698444
0.0359029
0.049951
0.0749742
0.0847373
0.0928745
0.0996584
0.105313
0.109529
0.103005
0.0951843
0.0858079
0.0745685
0.0473146
0.0190782
0.0397503
0.0463772
0.0519034
0.0565862
0.060635
-0.0356297
-0.03836
-0.0410902
-0.0438183
-0.0465483
-0.0535711
-0.0515018
-0.0438539
-0.0414656
-0.0392252
-0.0370872
-0.0350226
-0.140385
-0.140794
-0.141185
-0.141553
-0.141892
-0.145267
-0.144829
-0.141953
-0.140974
-0.14016
-0.139479
-0.138907
-0.132515
-0.133792
-0.135338
-0.137176
-0.139385
-0.144443
-0.145906
-0.139377
-0.136704
-0.134476
-0.132606
-0.131065
-0.133986
-0.135624
-0.137602
-0.139962
-0.142807
-0.150191
-0.06958
-0.0525777
-0.0457573
-0.0400716
-0.0353384
-0.0313761
0.0473168
0.0406965
0.0327557
0.0232247
0.0117981
-0.0194634
-0.00915905
0.031542
0.0452782
0.0567314
0.0662821
0.0742445
0.0901754
0.0833702
0.0752094
0.065418
0.0536751
0.010414
0.00965648
0.0523159
0.0641537
0.0740204
0.0822437
0.0890999
0.0978805
0.0922994
0.0856024
0.0775655
0.0679234
0.0344801
0.0489435
0.0735216
0.08332
0.0914842
0.0982874
0.103954
0.109476
0.102782
0.094755
0.0851322
0.0735956
0.0456363
0.0147867
0.0354129
0.0421983
0.0479113
0.0527929
0.0570393
-0.0392362
-0.0419522
-0.0446701
-0.0473883
-0.050109
-0.0586922
-0.147623
-0.143315
-0.142597
-0.141879
-0.141161
-0.140443
-0.139442
-0.140145
-0.140845
-0.141544
-0.142243
-0.146189
-0.244002
-0.242355
-0.242281
-0.242208
-0.242135
-0.242061
-0.242966
-0.242954
-0.24292
-0.24286
-0.242762
-0.24376
-0.2433
-0.242397
-0.242272
-0.242165
-0.242081
-0.242014
-0.238679
-0.239001
-0.239382
-0.239847
-0.240398
-0.242611
-0.242864
-0.239812
-0.239092
-0.238489
-0.23799
-0.237564
-0.238121
-0.238589
-0.239153
-0.239821
-0.240622
-0.244227
-0.245657
-0.241497
-0.24052
-0.239712
-0.239028
-0.238469
-0.136216
-0.13806
-0.140277
-0.142933
-0.146121
-0.154318
-0.0773914
-0.0596756
-0.0525216
-0.0465561
-0.0415909
-0.0374446
0.0342228
0.0274455
0.0193116
0.00954723
-0.00215467
-0.0328413
-0.0252814
0.0126354
0.0266666
0.0383655
0.0481189
0.0562464
0.0568244
0.0485567
0.0386335
0.0267298
0.0124491
-0.0247305
-0.00913064
0.0306879
0.0447093
0.0563957
0.066138
0.074259
0.0739307
0.0657289
0.0558878
0.0440819
0.0299125
-0.0097582
0.00872579
0.0514126
0.0634122
0.0734095
0.081742
0.0886868
0.0975775
0.0919181
0.0851289
0.0769803
0.0672039
0.0335566
0.0480733
0.0729865
0.082915
0.0911881
0.0980833
0.103827
0.109427
0.102621
0.0944582
0.0846727
0.07294
0.0445347
0.0132924
0.0340005
0.0409733
0.04686
0.0519002
0.0562871
-0.0407159
-0.0434391
-0.0461618
-0.0488846
-0.0516089
-0.0603949
-0.148682
-0.144126
-0.14345
-0.142775
-0.1421
-0.141425
-0.242711
-0.242786
-0.242863
-0.24294
-0.243016
-0.245106
-0.244488
-0.242465
-0.242392
-0.24232
-0.242248
-0.242174
-0.343423
-0.343421
-0.343419
-0.343418
-0.343415
-0.344196
-0.343962
-0.343396
-0.343417
-0.343438
-0.34346
-0.34348
-0.344213
-0.344161
-0.344097
-0.344019
-0.343924
-0.344013
-0.343691
-0.343599
-0.343654
-0.343705
-0.343745
-0.34378
-0.34196
-0.342007
-0.34206
-0.342128
-0.342209
-0.343036
-0.342989
-0.341733
-0.341604
-0.341491
-0.341403
-0.341336
-0.341474
-0.341557
-0.341667
-0.3418
-0.341952
-0.343478
-0.343952
-0.342134
-0.341946
-0.341781
-0.34165
-0.341538
-0.340741
-0.340936
-0.341152
-0.341423
-0.341743
-0.343995
-0.246042
-0.241073
-0.239695
-0.23855
-0.237587
-0.236801
-0.134501
-0.136819
-0.139607
-0.142947
-0.146949
-0.156209
-0.0818255
-0.0633037
-0.0553377
-0.048694
-0.043172
-0.0385498
0.0239835
0.0175046
0.00972743
0.000395572
-0.0107897
-0.0404989
-0.0341707
0.00128238
0.0135975
0.0238664
0.0324267
0.0395602
0.0405678
0.0333963
0.0247911
0.0144671
0.00208261
-0.0330909
-0.0329091
0.00219337
0.014565
0.0248765
0.0334716
0.0406326
0.0567246
0.048421
0.0384566
0.0265039
0.0121612
-0.024875
-0.0250453
0.0120476
0.0263908
0.0383426
0.0483032
0.0566026
0.0737352
0.0655221
0.055666
0.0438366
0.0296447
-0.0101082
0.00827799
0.0511177
0.0631542
0.0731794
0.0815381
0.0885012
0.0974539
0.0917751
0.0849636
0.0767878
0.0669737
0.0331494
0.0476895
0.072785
0.0827552
0.0910615
0.0979843
0.103751
0.109384
0.102532
0.0943147
0.0844625
0.0726513
0.0440662
0.012738
0.0335621
0.0406037
0.0465498
0.051642
0.0560704
-0.041198
-0.043917
-0.0466351
-0.049354
-0.0520744
-0.0610017
-0.149288
-0.144724
-0.144045
-0.143364
-0.142684
-0.142005
-0.24317
-0.243246
-0.243323
-0.243401
-0.243477
-0.245556
-0.344849
-0.344023
-0.344023
-0.344022
-0.344022
-0.344022
-0.343704
-0.343705
-0.343705
-0.343705
-0.343705
-0.344541
-0.444323
-0.443995
-0.443995
-0.443995
-0.443994
-0.443994
-0.443832
-0.443831
-0.443831
-0.44383
-0.443828
-0.444115
-0.444022
-0.443866
-0.443879
-0.443893
-0.443907
-0.44392
-0.444474
-0.444443
-0.444405
-0.444358
-0.444303
-0.444156
-0.44402
-0.444158
-0.444217
-0.444271
-0.444316
-0.44435
-0.443415
-0.443415
-0.443409
-0.443403
-0.443398
-0.443655
-0.443732
-0.443286
-0.443283
-0.443268
-0.443265
-0.443249
-0.443605
-0.443627
-0.443624
-0.443645
-0.443661
-0.444173
-0.444738
-0.444196
-0.444161
-0.444145
-0.444135
-0.444113
-0.444399
-0.444425
-0.444461
-0.444496
-0.444552
-0.445177
-0.445378
-0.444555
-0.444439
-0.444336
-0.444261
-0.444197
-0.338865
-0.339232
-0.339653
-0.340167
-0.340782
-0.343674
-0.245832
-0.239643
-0.237462
-0.235643
-0.234116
-0.232856
-0.124301
-0.127553
-0.131467
-0.136161
-0.141798
-0.154692
-0.0825005
-0.0606237
-0.0513487
-0.0436136
-0.0371822
-0.0317963
0.0161829
0.00997946
0.00253743
-0.0063916
-0.0171016
-0.044593
-0.040703
-0.0115096
-0.00120181
0.00739444
0.0145563
0.0205298
0.0212634
0.0153433
0.00824221
-0.000280644
-0.0105026
-0.0395423
-0.0393196
-0.0103365
-0.000136942
0.00836512
0.015449
0.0213555
0.0213289
0.0154253
0.00834973
-0.000145348
-0.010343
-0.0393553
-0.0329644
0.00218284
0.0145442
0.0248466
0.0334293
0.0405819
0.0405309
0.0333791
0.0247993
0.0144988
0.00213854
-0.0330619
-0.0251785
0.011974
0.0263157
0.038267
0.0482252
0.0565224
0.0736366
0.065421
0.0555623
0.0437299
0.0295349
-0.0102906
0.00808355
0.0510118
0.0630531
0.0730851
0.0814489
0.0884167
0.0974001
0.0917186
0.084901
0.0767199
0.0669014
0.0330007
0.0475584
0.0727239
0.0827042
0.0910191
0.0979495
0.103723
0.109374
0.102506
0.0942693
0.0843934
0.0725552
0.0439232
0.0125825
0.0335126
0.0405942
0.0465743
0.0516924
0.056138
-0.0413522
-0.0440807
-0.0468083
-0.0495358
-0.0522646
-0.0612187
-0.149547
-0.144991
-0.144309
-0.143628
-0.142945
-0.142261
-0.24344
-0.243517
-0.243595
-0.243671
-0.243748
-0.245807
-0.345065
-0.344261
-0.344261
-0.34426
-0.34426
-0.34426
-0.444428
-0.444428
-0.444429
-0.444429
-0.444429
-0.444732
-0.444544
-0.444223
-0.444223
-0.444223
-0.444222
-0.444222
-0.543795
-0.543795
-0.543795
-0.543796
-0.543796
-0.543933
-0.543746
-0.543604
-0.543604
-0.543604
-0.543603
-0.543603
-0.543483
-0.543483
-0.543484
-0.543483
-0.543482
-0.543605
-0.543568
-0.54352
-0.543527
-0.543533
-0.543539
-0.543546
-0.543924
-0.543908
-0.543889
-0.543864
-0.543836
-0.543704
-0.543719
-0.543862
-0.543902
-0.543929
-0.543948
-0.54398
-0.543641
-0.543626
-0.543635
-0.543622
-0.543614
-0.543658
-0.543973
-0.543882
-0.543876
-0.543892
-0.543873
-0.543881
-0.544618
-0.54461
-0.544629
-0.544619
-0.544624
-0.544659
-0.545656
-0.545735
-0.545734
-0.545737
-0.545726
-0.54573
-0.54706
-0.547065
-0.54707
-0.547071
-0.547078
-0.546859
-0.548118
-0.548455
-0.548429
-0.548423
-0.548403
-0.548392
-0.549286
-0.54931
-0.549351
-0.549385
-0.549435
-0.54907
-0.445318
-0.44412
-0.443846
-0.44362
-0.443435
-0.443278
-0.336053
-0.336711
-0.337482
-0.338417
-0.339543
-0.343301
-0.246653
-0.238957
-0.235642
-0.232876
-0.230561
-0.22864
-0.121753
-0.125793
-0.130657
-0.136495
-0.143497
-0.159713
-0.109583
-0.0815073
-0.0711907
-0.0625849
-0.0554128
-0.0494304
-0.0144999
-0.0204218
-0.027515
-0.0360317
-0.0462443
-0.0736386
-0.0681656
-0.0358158
-0.0257649
-0.0173873
-0.010399
-0.0045705
-0.00459619
-0.0104147
-0.0173886
-0.025756
-0.0358011
-0.0676264
-0.0675451
-0.0358212
-0.0257757
-0.0174052
-0.0104296
-0.00461496
-0.00466412
-0.010477
-0.0174546
-0.0258218
-0.0358655
-0.0676157
-0.0677093
-0.0359247
-0.0258753
-0.0175025
-0.010525
-0.00470927
0.0212889
0.0153855
0.00830755
-0.000189712
-0.0103895
-0.0394362
-0.0395012
-0.0104314
-0.000230554
0.00827091
0.0153537
0.0212569
0.0404991
0.0333449
0.0247609
0.0144597
0.0020978
-0.0331325
-0.0252548
0.0119324
0.0262726
0.0382231
0.0481818
0.0564811
0.0735896
0.0653741
0.0555155
0.0436853
0.0294915
-0.010372
0.00801358
0.0509755
0.0630157
0.0730492
0.0814132
0.0883808
0.0973808
0.0916981
0.0848793
0.0766986
0.0668843
0.0329623
0.0475292
0.0727109
0.0826907
0.0910066
0.0979372
0.103712
0.109367
0.102497
0.0942575
0.0843778
0.0725369
0.0438943
0.0125514
0.0335059
0.0405914
0.0465736
0.0516947
0.0561417
-0.04138
-0.0441113
-0.0468399
-0.0495681
-0.0522988
-0.0612598
-0.149628
-0.145081
-0.144398
-0.143715
-0.143034
-0.142351
-0.243567
-0.243645
-0.243721
-0.243798
-0.243876
-0.245918
-0.345193
-0.344403
-0.344403
-0.344403
-0.344402
-0.344402
-0.444593
-0.444593
-0.444593
-0.444593
-0.444594
-0.444883
-0.544343
-0.544237
-0.544237
-0.544236
-0.544236
-0.544236
-0.544011
-0.544011
-0.544011
-0.544011
-0.544012
-0.544132
-0.643243
-0.643203
-0.643202
-0.643202
-0.643201
-0.643201
-0.64291
-0.64291
-0.642911
-0.642911
-0.642912
-0.642971
-0.642768
-0.642698
-0.642698
-0.642697
-0.642697
-0.642697
-0.642572
-0.642572
-0.642572
-0.642572
-0.642573
-0.642638
-0.642612
-0.642582
-0.642584
-0.642585
-0.642587
-0.64259
-0.642826
-0.642818
-0.642812
-0.642803
-0.642791
-0.642717
-0.642828
-0.642927
-0.642937
-0.64295
-0.64297
-0.64297
-0.643013
-0.643022
-0.64301
-0.643012
-0.643011
-0.642982
-0.643501
-0.643554
-0.64356
-0.643556
-0.643556
-0.643556
-0.644626
-0.644631
-0.644622
-0.644633
-0.644624
-0.644448
-0.645886
-0.64627
-0.646273
-0.646262
-0.646271
-0.646266
-0.64848
-0.648481
-0.648487
-0.64849
-0.648488
-0.647838
-0.650205
-0.65115
-0.651153
-0.651148
-0.65114
-0.651143
-0.653637
-0.653638
-0.653645
-0.65365
-0.653655
-0.6525
-0.653211
-0.654525
-0.6545
-0.654491
-0.654469
-0.654465
-0.548934
-0.549006
-0.549086
-0.549178
-0.549293
-0.549064
-0.445041
-0.443201
-0.442631
-0.442154
-0.441758
-0.441434
-0.332396
-0.333549
-0.3349
-0.336538
-0.338504
-0.343565
-0.247293
-0.235371
-0.230331
-0.226129
-0.222609
-0.219703
-0.125695
-0.130352
-0.135937
-0.142639
-0.150676
-0.170142
-0.126769
-0.0995812
-0.0890752
-0.0803156
-0.0730135
-0.0669277
-0.0553501
-0.0619177
-0.0698066
-0.0792641
-0.0906125
-0.121095
-0.102532
-0.066481
-0.0549388
-0.0453141
-0.0372928
-0.0306031
-0.0307555
-0.0374081
-0.0453908
-0.054967
-0.0664566
-0.10179
-0.101678
-0.0665602
-0.0550706
-0.0454924
-0.0375092
-0.0308575
-0.0309349
-0.0375874
-0.0455719
-0.0551499
-0.0666434
-0.101733
-0.101825
-0.066707
-0.0552086
-0.0456304
-0.037643
-0.0309881
-0.0310223
-0.037677
-0.0456667
-0.0552499
-0.0667532
-0.101896
-0.0677782
-0.0359697
-0.0259154
-0.0175378
-0.010558
-0.00473913
-0.0047543
-0.0105765
-0.0175584
-0.0259414
-0.0359955
-0.0678213
-0.0395407
-0.0104561
-0.000252793
0.0082467
0.0153343
0.0212368
0.0404808
0.0333245
0.0247393
0.0144363
0.00207164
-0.0331759
-0.0252947
0.0119095
0.0262514
0.0382026
0.0481632
0.0564604
0.0735716
0.0653566
0.0554982
0.0436681
0.0294749
-0.0104029
0.00799631
0.0509666
0.0630048
0.073038
0.0814017
0.088367
0.0973748
0.0916919
0.0848757
0.0766966
0.0668816
0.0329613
0.0475321
0.0727087
0.0826894
0.091006
0.0979348
0.103709
0.109366
0.102496
0.0942562
0.0843762
0.0725348
0.0439051
0.0125738
0.0335397
0.0406314
0.0466172
0.0517396
0.0561884
-0.041366
-0.0440953
-0.0468234
-0.049554
-0.0522853
-0.061246
-0.149638
-0.145098
-0.144416
-0.143731
-0.143048
-0.142367
-0.243615
-0.243692
-0.243769
-0.243848
-0.243924
-0.245958
-0.345267
-0.344487
-0.344486
-0.344486
-0.344485
-0.344485
-0.44473
-0.44473
-0.444731
-0.444731
-0.444732
-0.44501
-0.544573
-0.544484
-0.544483
-0.544483
-0.544482
-0.544482
-0.644061
-0.644061
-0.644062
-0.644063
-0.644064
-0.644039
-0.643598
-0.643586
-0.643585
-0.643585
-0.643585
-0.643584
-0.742915
-0.742915
-0.742916
-0.742916
-0.742918
-0.742846
-0.742209
-0.742229
-0.742228
-0.742227
-0.742227
-0.742227
-0.741753
-0.741754
-0.741754
-0.741754
-0.741755
-0.741771
-0.741491
-0.741455
-0.741454
-0.741454
-0.741454
-0.741454
-0.741285
-0.741285
-0.741286
-0.741286
-0.741287
-0.741329
-0.741282
-0.741249
-0.741249
-0.741248
-0.741249
-0.741249
-0.741356
-0.741356
-0.741356
-0.741356
-0.741356
-0.741342
-0.741489
-0.741533
-0.741534
-0.741537
-0.74154
-0.741542
-0.741818
-0.741818
-0.741817
-0.741816
-0.741817
-0.741767
-0.742398
-0.74252
-0.742516
-0.742512
-0.742521
-0.742516
-0.74377
-0.743764
-0.743765
-0.743761
-0.743771
-0.743495
-0.745196
-0.74571
-0.745702
-0.745714
-0.745705
-0.745711
-0.748468
-0.748467
-0.74847
-0.748463
-0.748467
-0.747619
-0.750738
-0.752015
-0.752011
-0.75201
-0.752011
-0.752012
-0.755809
-0.755822
-0.755806
-0.755819
-0.755817
-0.754139
-0.757005
-0.758297
-0.758297
-0.758283
-0.758297
-0.758283
-0.75234
-0.752345
-0.752344
-0.752361
-0.752362
-0.750905
-0.650113
-0.651424
-0.651368
-0.651334
-0.651291
-0.651273
-0.546514
-0.546689
-0.546867
-0.547085
-0.547359
-0.547552
-0.444585
-0.441783
-0.440708
-0.439811
-0.43906
-0.438447
-0.328977
-0.330785
-0.332942
-0.335542
-0.338652
-0.34547
-0.255363
-0.239719
-0.233207
-0.227778
-0.223247
-0.219478
-0.140946
-0.146828
-0.153871
-0.162332
-0.172469
-0.201275
-0.16102
-0.133939
-0.123847
-0.115428
-0.108407
-0.102548
-0.0845169
-0.0909456
-0.0986542
-0.107901
-0.118987
-0.153267
-0.15202
-0.118415
-0.107518
-0.0984325
-0.0908611
-0.0845488
-0.0556936
-0.0621097
-0.0698167
-0.0790593
-0.0901487
-0.119893
-0.119713
-0.0901881
-0.0791267
-0.0699075
-0.0622249
-0.0558237
-0.0559203
-0.06232
-0.0699982
-0.0792148
-0.0902712
-0.119776
-0.119867
-0.0903434
-0.0792837
-0.0700649
-0.0623819
-0.0559825
-0.0560186
-0.06242
-0.0701057
-0.0793295
-0.0903942
-0.119936
-0.119978
-0.0904214
-0.0793555
-0.0701275
-0.0624415
-0.0560348
-0.0310398
-0.0376944
-0.0456864
-0.0552723
-0.0667802
-0.101941
-0.101965
-0.0667904
-0.0552821
-0.0456962
-0.0377043
-0.0310442
-0.00476526
-0.0105832
-0.0175682
-0.0259512
-0.0360075
-0.0678462
-0.0395627
-0.0104681
-0.000262855
0.00823888
0.0153242
0.0212298
0.0404716
0.0333166
0.024728
0.0144242
0.0020583
-0.0332008
-0.0253164
0.0118988
0.0262417
0.0381922
0.0481533
0.0564525
0.0735664
0.0653512
0.0554912
0.0436651
0.0294708
-0.0104144
0.00799503
0.0509675
0.0630055
0.0730359
0.0813979
0.0883649
0.0973732
0.0916923
0.0848781
0.0767
0.0668853
0.0329689
0.0475384
0.0727113
0.0826921
0.0910073
0.0979367
0.10371
0.109365
0.102494
0.0942559
0.0843773
0.072536
0.043911
0.0125864
0.033548
0.0406385
0.0466254
0.0517449
0.0561916
-0.0413437
-0.0440727
-0.0468018
-0.0495324
-0.0522649
-0.061223
-0.149626
-0.145089
-0.144407
-0.143722
-0.143038
-0.142356
-0.243632
-0.243708
-0.243786
-0.243865
-0.243942
-0.245971
-0.345316
-0.344541
-0.34454
-0.34454
-0.34454
-0.34454
-0.44485
-0.44485
-0.44485
-0.444851
-0.444851
-0.445121
-0.544812
-0.544745
-0.544745
-0.544744
-0.544744
-0.544744
-0.644606
-0.644606
-0.644607
-0.644608
-0.64461
-0.644536
-0.744696
-0.744956
-0.744954
-0.744952
-0.744951
-0.744951
-0.743841
-0.743842
-0.743842
-0.743843
-0.743845
-0.743691
-0.843872
-0.844222
-0.84422
-0.844219
-0.844218
-0.844218
-0.842485
-0.842485
-0.842486
-0.842487
-0.842488
-0.842304
-0.841185
-0.841265
-0.841264
-0.841263
-0.841263
-0.841263
-0.840481
-0.840482
-0.840482
-0.840482
-0.840483
-0.840464
-0.840038
-0.840026
-0.840025
-0.840025
-0.840025
-0.840024
-0.839775
-0.839775
-0.839776
-0.839776
-0.839777
-0.839805
-0.839715
-0.839679
-0.839678
-0.839676
-0.839674
-0.839673
-0.839686
-0.83969
-0.839695
-0.839699
-0.839705
-0.839724
-0.839869
-0.839875
-0.839875
-0.839869
-0.839866
-0.839864
-0.840224
-0.840229
-0.84022
-0.840224
-0.840226
-0.84018
-0.840811
-0.840943
-0.840936
-0.84094
-0.840944
-0.84094
-0.842167
-0.842166
-0.842175
-0.842163
-0.84217
-0.841887
-0.843576
-0.844096
-0.844096
-0.844096
-0.844096
-0.844091
-0.846906
-0.846921
-0.846907
-0.846914
-0.846918
-0.84604
-0.849283
-0.850679
-0.850668
-0.850669
-0.850677
-0.85067
-0.854983
-0.854972
-0.854978
-0.854969
-0.854981
-0.85284
-0.856035
-0.85867
-0.858665
-0.858664
-0.858663
-0.858666
-0.859247
-0.859251
-0.859248
-0.859252
-0.85925
-0.858023
-0.901218
-0.901626
-0.901614
-0.901604
-0.901593
-0.901587
-0.925082
-0.933761
-0.940995
-0.947028
-0.952057
-0.952054
-0.947027
-0.940999
-0.933769
-0.925094
-0.925105
-0.933778
-0.94101
-0.947032
-0.952046
-0.952044
-0.947024
-0.941006
-0.933782
-0.925123
-0.925139
-0.933793
-0.941014
-0.947016
-0.952032
-0.952195
-0.947032
-0.940844
-0.933414
-0.924499
-0.925723
-0.934425
-0.941681
-0.947721
-0.952758
-0.909912
-0.903478
-0.895758
-0.886492
-0.875372
-0.848786
-0.805053
-0.838014
-0.851579
-0.862884
-0.872304
-0.880152
-0.879992
-0.871979
-0.862357
-0.850813
-0.836959
-0.837503
-0.851171
-0.862559
-0.87205
-0.879957
-0.879974
-0.872064
-0.862569
-0.851174
-0.8375
-0.837501
-0.851181
-0.862576
-0.872072
-0.879988
-0.880006
-0.872085
-0.862584
-0.851181
-0.837501
-0.837498
-0.851181
-0.862586
-0.87209
-0.880009
-0.865279
-0.856789
-0.846602
-0.834376
-0.819703
-0.819705
-0.834373
-0.846596
-0.856783
-0.86527
-0.865262
-0.856775
-0.846591
-0.834369
-0.819705
-0.819701
-0.834364
-0.846582
-0.856762
-0.865247
-0.86523
-0.856751
-0.846573
-0.834358
-0.819701
-0.818219
-0.833309
-0.845884
-0.85636
-0.865087
-0.865045
-0.856213
-0.845612
-0.832888
-0.817619
-0.782392
-0.782325
-0.782396
-0.782381
-0.782362
-0.782344
-0.78234
-0.718817
-0.718875
-0.71892
-0.718989
-0.719067
-0.717975
-0.636438
-0.636837
-0.636461
-0.636162
-0.635892
-0.635685
-0.5363
-0.537012
-0.537842
-0.538866
-0.540074
-0.542414
-0.44615
-0.439724
-0.436565
-0.433939
-0.431734
-0.429909
-0.321609
-0.325315
-0.329748
-0.335076
-0.341459
-0.356614
-0.302151
-0.273982
-0.264379
-0.256379
-0.249704
-0.244143
-0.204061
-0.209642
-0.216352
-0.224394
-0.234033
-0.260236
-0.222124
-0.195108
-0.185122
-0.176793
-0.169853
-0.164065
-0.15026
-0.156521
-0.164029
-0.173035
-0.18384
-0.214778
-0.191906
-0.153448
-0.141726
-0.131954
-0.123807
-0.117016
-0.116774
-0.123461
-0.131477
-0.141099
-0.152642
-0.190278
-0.189907
-0.152592
-0.141083
-0.131489
-0.123501
-0.116834
-0.084671
-0.0909693
-0.0985303
-0.107604
-0.118485
-0.15184
-0.151887
-0.118568
-0.10769
-0.0986242
-0.0910683
-0.0847767
-0.0848437
-0.0911385
-0.0986969
-0.107766
-0.118651
-0.151984
-0.152058
-0.118705
-0.107815
-0.098743
-0.0911823
-0.0848854
-0.0849038
-0.0912033
-0.0987698
-0.107841
-0.118736
-0.152104
-0.15213
-0.118751
-0.107856
-0.0987822
-0.0912137
-0.0849105
-0.0560412
-0.0624505
-0.0701387
-0.0793668
-0.0904348
-0.120001
-0.12001
-0.0904387
-0.0793671
-0.0701403
-0.0624498
-0.0560404
-0.0310453
-0.0377052
-0.0456972
-0.0552876
-0.0667941
-0.101975
-0.0678542
-0.0360121
-0.0259534
-0.0175729
-0.0105854
-0.00476748
0.0212263
0.0153207
0.00823533
-0.000268487
-0.0104723
-0.039572
-0.0332131
0.00205227
0.0144184
0.0247223
0.0333129
0.0404685
0.0564524
0.0481491
0.0381883
0.0262395
0.0118964
-0.025325
-0.0104162
0.0294738
0.0436681
0.0554935
0.0653494
0.0735647
0.088363
0.0813983
0.0730391
0.0630087
0.0509714
0.00799899
0.0329761
0.0668903
0.0767014
0.0848788
0.0916939
0.0973718
0.10371
0.0979361
0.0910058
0.0826928
0.0727156
0.0475452
0.0439198
0.0725402
0.0843793
0.0942554
0.102493
0.109363
0.056203
0.0517568
0.0466366
0.0406504
0.0335605
0.012601
-0.0612045
-0.0522484
-0.0495167
-0.0467875
-0.0440561
-0.041326
-0.142344
-0.143027
-0.14371
-0.144393
-0.145077
-0.149614
-0.245976
-0.243947
-0.243869
-0.243791
-0.243714
-0.243637
-0.344578
-0.344578
-0.344578
-0.344579
-0.344579
-0.345351
-0.44522
-0.444958
-0.444957
-0.444957
-0.444956
-0.444956
-0.544994
-0.544994
-0.544995
-0.544995
-0.544996
-0.545042
-0.645034
-0.645159
-0.645156
-0.645154
-0.645153
-0.645153
-0.746114
-0.746115
-0.746116
-0.746118
-0.746121
-0.74574
-0.847893
-0.84876
-0.848758
-0.848756
-0.848755
-0.848754
-0.846399
-0.846399
-0.8464
-0.846402
-0.846404
-0.845817
-0.948387
-0.949561
-0.94956
-0.949559
-0.949558
-0.949558
-0.945516
-0.945516
-0.945517
-0.945518
-0.945519
-0.944842
-0.942115
-0.942465
-0.942464
-0.942463
-0.942463
-0.942463
-0.940426
-0.940426
-0.940427
-0.940427
-0.940428
-0.940268
-0.939134
-0.939191
-0.939191
-0.93919
-0.93919
-0.939189
-0.9385
-0.938501
-0.938501
-0.938501
-0.938502
-0.938495
-0.93816
-0.938142
-0.938141
-0.93814
-0.93814
-0.938139
-0.937967
-0.937971
-0.937973
-0.937974
-0.937977
-0.93801
-0.937966
-0.937932
-0.937925
-0.937919
-0.937913
-0.937908
-0.938044
-0.938046
-0.938051
-0.938056
-0.938067
-0.938076
-0.938347
-0.938381
-0.938375
-0.938375
-0.938375
-0.938375
-0.938975
-0.938975
-0.938975
-0.938979
-0.938976
-0.938872
-0.939757
-0.939982
-0.93999
-0.939979
-0.939988
-0.939983
-0.941584
-0.941579
-0.941579
-0.941583
-0.941584
-0.941162
-0.943248
-0.943969
-0.943968
-0.943968
-0.943955
-0.943971
-0.947229
-0.947225
-0.947235
-0.947237
-0.94723
-0.946023
-0.949097
-0.951243
-0.951246
-0.951249
-0.951238
-0.951241
-0.955691
-0.955677
-0.95569
-0.955687
-0.955686
-0.95164
-0.967732
-0.985646
-0.991782
-0.996896
-1.00116
-1.00471
-1.00414
-1.00414
-1.00414
-1.00414
-1.00414
-1.00064
-1.00064
-1.00064
-1.00064
-1.00065
-0.996456
-0.996451
-0.996443
-0.996438
-0.996428
-0.991377
-0.991389
-0.991399
-0.99142
-0.991438
-0.985404
-0.985373
-0.985349
-0.985336
-0.985315
-0.969937
-0.969939
-0.969959
-0.969972
-0.969988
-1.05317
-1.05315
-1.05314
-1.05313
-1.05311
-1.05711
-1.05712
-1.05715
-1.05717
-1.05721
-1.05965
-1.05963
-1.05961
-1.0596
-1.05959
-1.06165
-1.06166
-1.06167
-1.06168
-1.06169
-1.0634
-1.06339
-1.06338
-1.06338
-1.06337
-1.0648
-1.06481
-1.06481
-1.06482
-1.06481
-1.06528
-1.06383
-1.06206
-1.05995
-1.05741
-1.05285
-1.0526
-1.05801
-1.06059
-1.06274
-1.06454
-1.06602
-1.00582
-1.00234
-0.998167
-0.993154
-0.987135
-0.965431
-0.902028
-0.904946
-0.92952
-0.937278
-0.943747
-0.949134
-0.953616
-0.910394
-0.904625
-0.897703
-0.889399
-0.879434
-0.851443
-0.807337
-0.841153
-0.853816
-0.86437
-0.87316
-0.880489
-0.86526
-0.856744
-0.846524
-0.83426
-0.81954
-0.784405
-0.783323
-0.818581
-0.833618
-0.846148
-0.856588
-0.865284
-0.865114
-0.856101
-0.845282
-0.832294
-0.816709
-0.781267
-0.780827
-0.817149
-0.832617
-0.845506
-0.856242
-0.865189
-0.865333
-0.865346
-0.865357
-0.865362
-0.865369
-0.856619
-0.856615
-0.856611
-0.856604
-0.856594
-0.846109
-0.846113
-0.846115
-0.846115
-0.846117
-0.833512
-0.833514
-0.833519
-0.833521
-0.833522
-0.818422
-0.818412
-0.818405
-0.818394
-0.818387
-0.780353
-0.780383
-0.780418
-0.780471
-0.780522
-0.716445
-0.716174
-0.715945
-0.715758
-0.715595
-0.630714
-0.631243
-0.631885
-0.632635
-0.633556
-0.634411
-0.54164
-0.537029
-0.534641
-0.532644
-0.530997
-0.5296
-0.420793
-0.423722
-0.427257
-0.4315
-0.436575
-0.447945
-0.370536
-0.352041
-0.344542
-0.338297
-0.333083
-0.328733
-0.270584
-0.275925
-0.282335
-0.290023
-0.299247
-0.325115
-0.317654
-0.287991
-0.27839
-0.270384
-0.263712
-0.25815
-0.220266
-0.226542
-0.234074
-0.243109
-0.253944
-0.292161
-0.251764
-0.218279
-0.207717
-0.198907
-0.191559
-0.185437
-0.184863
-0.190839
-0.198003
-0.206601
-0.216912
-0.249822
-0.212888
-0.182749
-0.172253
-0.163509
-0.156213
-0.150137
-0.150109
-0.156154
-0.163402
-0.172096
-0.182533
-0.212393
-0.212333
-0.182536
-0.172115
-0.163432
-0.156197
-0.150161
-0.116921
-0.123577
-0.131562
-0.141144
-0.152645
-0.189884
-0.18996
-0.152714
-0.141212
-0.131628
-0.123643
-0.116984
-0.117025
-0.123687
-0.131674
-0.141263
-0.152765
-0.190031
-0.19008
-0.152798
-0.141293
-0.131701
-0.123709
-0.11705
-0.117059
-0.123719
-0.131714
-0.141305
-0.152815
-0.190108
-0.190119
-0.152821
-0.141309
-0.131715
-0.12372
-0.11706
-0.0849107
-0.091214
-0.0987822
-0.107861
-0.118754
-0.15214
-0.152144
-0.118753
-0.107858
-0.0987762
-0.0912104
-0.0849053
-0.0560337
-0.0624431
-0.070136
-0.0793634
-0.0904372
-0.120012
-0.101979
-0.0667936
-0.0552869
-0.0456942
-0.0376996
-0.0310428
-0.00476299
-0.010588
-0.017572
-0.025955
-0.0360139
-0.0678584
-0.039576
-0.0104731
-0.000268473
0.00823321
0.0153233
0.0212257
0.0404694
0.0333118
0.0247225
0.0144191
0.00205115
-0.0332176
-0.025327
0.0118961
0.0262399
0.0381896
0.0481486
0.0564533
0.0735636
0.0653503
0.055497
0.0436697
0.0294767
-0.0104158
0.00800107
0.0509752
0.0630107
0.0730424
0.0813995
0.0883638
0.0973713
0.0916943
0.0848784
0.076702
0.0668923
0.0329815
0.0475517
0.0727168
0.0826928
0.0910071
0.0979359
0.103709
0.109362
0.102493
0.0942563
0.0843803
0.0725413
0.0439243
0.0126072
0.0335613
0.0406511
0.046637
0.0517567
0.0562037
-0.0413179
-0.0440466
-0.0467771
-0.0495076
-0.052238
-0.0611921
-0.149607
-0.14507
-0.144385
-0.143702
-0.143019
-0.142336
-0.24364
-0.243718
-0.243794
-0.243872
-0.243951
-0.245979
-0.345378
-0.344609
-0.344608
-0.344608
-0.344608
-0.344607
-0.445044
-0.445044
-0.445044
-0.445045
-0.445045
-0.445299
-0.545229
-0.545202
-0.5452
-0.545199
-0.545198
-0.545198
-0.645615
-0.645616
-0.645617
-0.64562
-0.645623
-0.645456
-0.746644
-0.747137
-0.747134
-0.747132
-0.74713
-0.74713
-0.850833
-0.850833
-0.850834
-0.850835
-0.850836
-0.8497
-0.956369
-0.957543
-0.957567
-0.95759
-0.957614
-0.957639
-0.953965
-0.953965
-0.953966
-0.953966
-0.953967
-0.95247
-1.06171
-1.06206
-1.06213
-1.06219
-1.06226
-1.06233
-1.05458
-1.05458
-1.05458
-1.05458
-1.05458
-1.05339
-1.04658
-1.04774
-1.04774
-1.04774
-1.04774
-1.04774
-1.04281
-1.04281
-1.04281
-1.04281
-1.04281
-1.04223
-1.03944
-1.0397
-1.0397
-1.0397
-1.0397
-1.0397
-1.0379
-1.0379
-1.0379
-1.0379
-1.0379
-1.0378
-1.0369
-1.03693
-1.03693
-1.03693
-1.03693
-1.03693
-1.03644
-1.03644
-1.03644
-1.03644
-1.03644
-1.03645
-1.03623
-1.03621
-1.0362
-1.0362
-1.0362
-1.0362
-1.03608
-1.03609
-1.03609
-1.03609
-1.0361
-1.03613
-1.03619
-1.03617
-1.03616
-1.03616
-1.03615
-1.03615
-1.03637
-1.03637
-1.03637
-1.03638
-1.03637
-1.03636
-1.0367
-1.03676
-1.03676
-1.03676
-1.03676
-1.03676
-1.03741
-1.03741
-1.03741
-1.03741
-1.03741
-1.03727
-1.03821
-1.03845
-1.03845
-1.03845
-1.03845
-1.03844
-1.04002
-1.04003
-1.04002
-1.04003
-1.04003
-1.03962
-1.04156
-1.04223
-1.04222
-1.04222
-1.04222
-1.04222
-1.04502
-1.04502
-1.04502
-1.04503
-1.04502
-1.04389
-1.0473
-1.04859
-1.04859
-1.04859
-1.0486
-1.04858
-1.13718
-1.13717
-1.13717
-1.13717
-1.13718
-1.13822
-1.13591
-1.13349
-1.1324
-1.13149
-1.13073
-1.1301
-1.12979
-1.12977
-1.12978
-1.12976
-1.12977
-1.13036
-1.13036
-1.13038
-1.13038
-1.1304
-1.13113
-1.1311
-1.1311
-1.13109
-1.13108
-1.13194
-1.13195
-1.13196
-1.13198
-1.13201
-1.13307
-1.13304
-1.13301
-1.13299
-1.13298
-1.13508
-1.13509
-1.1351
-1.13512
-1.13514
-1.22034
-1.22032
-1.2203
-1.22029
-1.22028
-1.2069
-1.20692
-1.20694
-1.20696
-1.207
-1.20259
-1.20256
-1.20255
-1.20253
-1.20252
-1.19886
-1.19888
-1.19889
-1.19889
-1.19892
-1.19586
-1.19584
-1.19584
-1.19583
-1.19582
-1.19327
-1.19328
-1.19328
-1.1933
-1.19331
-1.1936
-1.19619
-1.19928
-1.20299
-1.20744
-1.22274
-1.22547
-1.20733
-1.20302
-1.19942
-1.19643
-1.19393
-1.13069
-1.13134
-1.1321
-1.13302
-1.13413
-1.13702
-1.13758
-1.13439
-1.13332
-1.13243
-1.13169
-1.13107
-1.06653
-1.0651
-1.06338
-1.06131
-1.05883
-1.05299
-0.965388
-0.98926
-0.994875
-0.999549
-1.00345
-1.00669
-1.00715
-1.00401
-1.00023
-0.995696
-0.990257
-0.967215
-0.907536
-0.931603
-0.938885
-0.944954
-0.95001
-0.954217
-0.910599
-0.905149
-0.89861
-0.89076
-0.881345
-0.852503
-0.807832
-0.842664
-0.854915
-0.865123
-0.87363
-0.880719
-0.865374
-0.857028
-0.84701
-0.834988
-0.820563
-0.785359
-0.784274
-0.819616
-0.83435
-0.846626
-0.856855
-0.865377
-0.880732
-0.873297
-0.864382
-0.853676
-0.840831
-0.805554
-0.805028
-0.839323
-0.852601
-0.863661
-0.872878
-0.880557
-0.880317
-0.872121
-0.862282
-0.850473
-0.8363
-0.80252
-0.798767
-0.796103
-0.795945
-0.795808
-0.795703
-0.795608
-0.83419
-0.848998
-0.861338
-0.871623
-0.880189
-0.880187
-0.871627
-0.861348
-0.849013
-0.834213
-0.834238
-0.849028
-0.861357
-0.871627
-0.880181
-0.880174
-0.871627
-0.861365
-0.849048
-0.834269
-0.834302
-0.84907
-0.861374
-0.871628
-0.880165
-0.880208
-0.871706
-0.861499
-0.849249
-0.834548
-0.871394
-0.883683
-0.893931
-0.902462
-0.909572
-0.909249
-0.902112
-0.893553
-0.883269
-0.870938
-0.870884
-0.883236
-0.893534
-0.902109
-0.909252
-0.90925
-0.902099
-0.893509
-0.883211
-0.870844
-0.870805
-0.883186
-0.893495
-0.902092
-0.90925
-0.909251
-0.902085
-0.893487
-0.883166
-0.87078
-0.837162
-0.837287
-0.83743
-0.837599
-0.837808
-0.840848
-0.812889
-0.807881