/*--------------------------------*- C++ -*----------------------------------*\
| =========                 |                                                 |
| \\      /  F ield         | OpenFOAM: The Open Source CFD Toolbox           |
|  \\    /   O peration     | Version:  2212                                  |
|   \\  /    A nd           | Website:  www.openfoam.com                      |
|    \\/     M anipulation  |                                                 |
\*---------------------------------------------------------------------------*/
FoamFile
{
    version     2.0;
    format      ascii;
    arch        "LSB;label=32;scalar=64";
    class       volScalarField;
    location    "270";
    object      T;
}
// * * * * * * * * * * * * * * * * * * * * * * * * * * * * * * * * * * * * * //

dimensions      [0 0 0 1 0 0 0];

internalField   nonuniform List<scalar> 
248319
(
310.453
310.275
309.551
309.201
308.877
308.665
308.596
308.725
308.811
309.07
309.44
309.853
310.429
310.208
309.525
309.092
308.767
308.589
308.556
309.136
309.222
309.392
309.571
309.765
309.999
309.946
309.767
309.641
309.507
309.393
309.352
308.916
308.901
308.954
309.047
309.211
310.043
310.32
309.702
309.286
308.947
308.772
308.735
309.091
309.176
309.386
309.658
309.934
310.406
310.579
310.296
310.037
309.761
309.544
309.465
309.486
309.556
309.766
310.054
310.35
310.869
310.656
310.026
309.722
309.428
309.201
309.11
309.073
309.147
309.371
309.692
310.038
310.899
310.65
309.793
309.343
308.965
308.722
308.643
308.474
308.507
308.683
309.032
309.536
310.412
310.226
309.971
309.75
309.522
309.293
309.147
309.643
309.77
309.93
310.077
310.209
310.332
310.269
310.102
309.961
309.828
309.686
309.585
309.542
309.633
309.753
309.87
309.982
310.085
310.083
309.858
309.596
309.28
309.028
308.942
309.366
309.442
309.635
309.841
309.983
310.127
310.172
310.117
310.035
309.873
309.688
309.611
309.789
309.861
310.03
310.158
310.206
310.212
310.663
310.502
310.287
310.022
309.79
309.704
309.756
309.837
310.09
310.423
310.737
311.091
311.313
310.908
310.539
310.154
309.874
309.778
309.485
309.563
309.797
310.129
310.47
311.098
310.979
310.438
310.085
309.745
309.505
309.421
308.919
308.993
309.217
309.543
309.904
310.776
310.546
309.525
309.092
308.744
308.521
308.449
308.348
308.39
308.561
308.87
309.346
310.373
310.277
310.01
309.774
309.512
309.257
309.106
309.498
309.66
309.86
310.039
310.191
310.323
310.195
310.098
309.982
309.831
309.647
309.483
309.555
309.691
309.84
309.965
310.067
310.152
309.93
309.861
309.786
309.687
309.562
309.441
309.403
309.485
309.588
309.684
309.772
309.847
309.844
309.698
309.499
309.234
308.999
308.915
309.183
309.254
309.434
309.621
309.746
309.848
309.835
309.817
309.752
309.611
309.44
309.367
309.511
309.579
309.726
309.826
309.855
309.834
309.905
309.936
309.923
309.843
309.708
309.635
309.91
309.988
310.161
310.286
310.328
310.31
310.758
310.605
310.416
310.176
309.946
309.854
309.941
310.048
310.344
310.686
310.982
311.217
311.495
311.288
310.913
310.474
310.129
310.008
310.047
310.149
310.484
310.954
311.357
311.349
311.164
310.914
310.529
310.136
309.866
309.777
309.787
309.867
310.114
310.486
310.866
311.06
310.904
310.283
309.941
309.623
309.402
309.326
308.706
308.78
308.999
309.326
309.701
310.714
310.403
309.243
308.818
308.492
308.287
308.221
308.174
308.217
308.389
308.688
309.134
310.243
310.242
309.966
309.725
309.457
309.196
309.049
309.354
309.538
309.776
309.988
310.161
310.303
310.213
310.115
309.978
309.792
309.565
309.372
309.334
309.522
309.738
309.908
310.024
310.091
310.012
309.951
309.861
309.731
309.562
309.405
309.315
309.458
309.61
309.723
309.799
309.842
309.711
309.663
309.607
309.529
309.425
309.322
309.263
309.331
309.416
309.494
309.564
309.621
309.617
309.509
309.344
309.111
308.896
308.82
308.994
309.061
309.229
309.4
309.511
309.59
309.536
309.55
309.503
309.374
309.214
309.147
309.26
309.322
309.455
309.536
309.537
309.484
309.481
309.558
309.583
309.531
309.417
309.353
309.466
309.528
309.637
309.687
309.664
309.577
310.099
310.126
310.108
310.026
309.892
309.816
309.995
310.085
310.28
310.441
310.525
310.532
310.872
310.716
310.53
310.292
310.059
309.964
310.05
310.163
310.462
310.804
311.104
311.338
311.659
311.468
311.103
310.661
310.303
310.175
310.258
310.372
310.724
311.184
311.531
311.536
311.334
311.751
311.47
310.907
310.534
310.422
310.116
310.214
310.531
311.02
311.448
311.183
311.017
311.754
311.785
311.46
311.13
311.016
310.306
310.399
310.668
311.038
311.333
311.037
310.956
310.485
310.118
309.777
309.544
309.463
308.549
308.616
308.836
309.194
309.639
310.838
310.469
309.038
308.577
308.251
308.06
308
308.022
308.057
308.225
308.525
308.968
310.229
310.267
309.945
309.679
309.4
309.135
308.987
309.237
309.453
309.737
309.992
310.198
310.363
310.313
310.199
310.025
309.787
309.503
309.269
309.238
309.467
309.746
309.979
310.142
310.237
310.167
310.059
309.888
309.656
309.386
309.171
309.243
309.424
309.631
309.797
309.911
309.976
309.875
309.798
309.68
309.517
309.32
309.153
309.196
309.327
309.466
309.571
309.643
309.686
309.516
309.478
309.433
309.369
309.282
309.196
309.125
309.179
309.248
309.312
309.371
309.419
309.404
309.318
309.175
308.968
308.773
308.705
308.806
308.869
309.023
309.18
309.283
309.356
309.281
309.305
309.261
309.137
308.989
308.929
309.009
309.066
309.188
309.258
309.25
309.189
309.123
309.21
309.254
309.224
309.126
309.07
309.139
309.193
309.274
309.285
309.226
309.117
309.273
309.367
309.407
309.38
309.287
309.222
309.577
309.651
309.79
309.888
309.912
309.864
310.495
310.476
310.402
310.28
310.122
310.037
310.145
310.24
310.459
310.662
310.806
310.888
311.068
310.862
310.64
310.372
310.133
310.045
310.079
310.179
310.467
310.84
311.212
311.56
311.911
311.614
311.184
310.714
310.367
310.249
310.351
310.459
310.796
311.266
311.671
311.818
311.631
311.905
311.643
311.135
310.76
310.648
311.999
312.063
312.197
312.284
312.169
311.376
311.1
311.89
312.064
311.985
311.78
311.686
312.244
312.266
312.28
312.147
311.755
310.833
310.814
311.733
312.044
312.119
312.04
311.97
311.313
311.404
311.615
311.791
311.723
310.975
311.021
311.144
310.801
310.427
310.153
310.064
308.679
308.733
308.935
309.352
309.904
310.968
310.708
308.958
308.422
308.095
307.913
307.857
307.944
307.97
308.128
308.429
308.902
310.458
310.497
310.119
309.811
309.501
309.212
309.039
309.277
309.56
309.909
310.216
310.451
310.608
310.543
310.473
310.275
309.978
309.615
309.305
309.269
309.567
309.928
310.231
310.433
310.504
310.513
310.352
310.122
309.812
309.464
309.194
309.113
309.348
309.67
309.973
310.218
310.521
310.099
309.955
309.771
309.537
309.278
309.083
309
309.17
309.41
309.639
309.831
310.022
309.776
309.682
309.555
309.391
309.202
309.049
309.076
309.194
309.324
309.425
309.498
309.546
309.348
309.312
309.272
309.216
309.141
309.069
308.989
309.03
309.085
309.139
309.189
309.232
309.206
309.129
309.004
308.819
308.644
308.584
308.621
308.679
308.819
308.962
309.061
309.146
309.071
309.074
309.022
308.904
308.769
308.714
308.767
308.82
308.936
309.008
309.009
308.97
308.882
308.943
308.978
308.951
308.861
308.809
308.863
308.911
308.975
308.972
308.915
308.828
308.888
308.989
309.051
309.057
308.997
308.948
309.401
309.444
309.485
309.469
309.429
309.383
309.856
309.873
309.879
309.852
309.763
309.697
310.06
310.163
310.334
310.435
310.492
310.529
311.161
311.097
311.001
310.778
310.486
310.349
310.219
310.338
310.668
311.033
311.27
311.379
311.851
311.554
311.188
310.73
310.35
310.215
310.07
310.169
310.475
310.925
311.426
311.907
312.288
311.755
311.245
310.744
310.396
310.283
310.409
310.503
310.809
311.264
311.716
312.255
312.119
312.02
311.518
311.01
310.719
310.637
312.213
312.287
312.469
312.641
312.705
311.929
311.618
312.821
312.895
312.869
312.822
312.8
312.425
312.451
312.485
312.404
312.068
311.073
310.8
311.902
312.389
312.581
312.615
312.609
312.42
312.419
312.355
312.091
311.54
310.588
310.631
311.608
312.059
312.264
312.3
312.291
312.016
312.066
312.121
312.046
311.789
310.885
311.049
311.708
311.663
311.416
311.168
311.079
309.416
309.464
309.671
310.166
310.767
311.086
310.888
309.081
308.462
308.131
307.964
307.914
308.004
308.01
308.141
308.433
308.952
310.82
310.965
310.668
310.403
310.119
309.84
309.644
309.966
310.276
310.58
310.777
310.868
310.889
310.768
310.836
310.821
310.655
310.33
309.981
309.911
310.247
310.606
310.811
310.838
310.751
310.823
310.863
310.757
310.482
310.109
309.808
309.717
309.98
310.346
310.655
310.833
310.91
311.015
310.802
310.582
310.279
309.956
309.736
309.022
309.224
309.513
309.799
310.048
310.507
310.502
309.88
309.624
309.364
309.113
308.943
308.902
309.051
309.269
309.488
309.683
309.93
309.678
309.562
309.426
309.261
309.08
308.941
308.957
309.065
309.187
309.287
309.365
309.424
309.205
309.166
309.125
309.073
309.005
308.943
308.856
308.887
308.932
308.979
309.025
309.07
309.026
308.947
308.834
308.671
308.515
308.463
308.446
308.499
308.624
308.754
308.853
308.966
308.908
308.868
308.801
308.686
308.562
308.513
308.547
308.596
308.708
308.789
308.817
308.827
308.751
308.753
308.756
308.718
308.629
308.58
308.625
308.67
308.729
308.735
308.707
308.676
308.648
308.723
308.775
308.787
308.742
308.7
309.124
309.16
309.183
309.153
309.112
309.07
310.803
310.856
310.597
310.139
309.709
309.527
309.782
309.958
310.379
310.809
311.034
310.958
311.39
311.381
311.095
310.637
310.204
310.023
310.287
310.469
310.924
311.434
311.819
311.975
312.373
312.105
311.642
311.087
310.629
310.467
310.149
310.267
310.629
311.13
311.644
312.208
312.112
311.675
311.184
310.667
310.279
310.152
310.171
310.283
310.654
311.211
311.843
312.861
312.435
311.91
311.359
310.805
310.41
310.285
310.318
310.416
310.744
311.243
311.752
312.487
312.38
312.157
311.562
310.948
310.608
310.516
312.359
312.451
312.656
312.812
312.858
312.163
311.74
312.912
312.986
312.968
312.937
312.923
312.973
312.978
312.996
312.996
312.86
311.334
311.325
312.798
312.934
312.943
312.928
312.92
312.936
312.94
312.951
312.931
312.73
311.079
310.596
311.744
312.337
312.601
312.68
312.689
312.513
312.494
312.371
312.013
311.357
310.406
310.505
311.492
312.035
312.319
312.407
312.415
312.299
312.308
312.273
312.111
311.772
310.823
311.058
311.907
312.054
312.057
311.963
311.906
310.666
310.724
310.951
311.348
311.58
311.184
311.113
309.853
309.065
308.658
308.486
308.436
308.32
308.303
308.383
308.619
309.194
311.101
311.271
311.168
311.163
311.161
311.156
311.157
311.302
311.272
311.238
311.196
311.146
311.085
310.946
311.08
311.181
311.258
311.309
311.336
311.325
311.334
311.301
311.226
311.117
310.965
311.096
311.231
311.312
311.362
311.356
311.321
311.387
311.423
311.436
311.414
311.367
311.261
311.481
311.533
311.549
311.552
311.535
311.512
311.589
311.598
311.607
311.61
311.608
311.603
311.134
310.834
310.629
310.372
310.122
309.959
310.206
310.311
310.469
310.636
310.781
311.066
310.504
309.779
309.532
309.299
309.092
308.963
308.806
308.935
309.13
309.334
309.526
309.846
309.582
309.443
309.298
309.133
308.96
308.834
308.842
308.941
309.059
309.162
309.248
309.32
309.091
309.045
308.998
308.943
308.878
308.822
308.729
308.753
308.793
308.837
308.884
308.934
308.875
308.778
308.673
308.527
308.389
308.344
308.289
308.336
308.449
308.57
308.675
308.827
308.804
308.706
308.617
308.499
308.384
308.34
308.365
308.412
308.521
308.618
308.686
308.768
308.722
308.645
308.597
308.534
308.442
308.394
308.426
308.471
308.533
308.562
308.58
308.619
308.461
308.507
308.54
308.545
308.507
308.473
308.879
308.922
308.949
308.921
308.888
308.865
310.962
310.844
310.455
309.929
309.475
309.293
309.661
309.891
310.585
311.512
312.325
312.749
312.72
312.265
311.521
310.682
310.029
309.799
310.002
310.225
310.85
311.635
312.328
312.812
312.923
312.424
311.76
311.011
310.408
310.195
310.354
310.547
311.114
311.848
312.508
313.022
312.846
312.184
311.486
310.877
310.477
310.354
310.158
310.276
310.664
311.264
311.909
312.492
312.314
311.879
311.368
310.822
310.383
310.217
310.226
310.375
310.836
311.511
312.29
313.25
313.516
312.216
311.376
310.714
310.302
310.174
310.162
310.26
310.577
311.075
311.638
313.041
313.136
312.234
311.449
310.773
310.435
310.343
312.309
312.417
312.687
312.902
313.019
313.161
313.017
313.075
313.061
313.023
312.989
312.975
313.005
313.012
313.039
313.07
313.045
312.848
312.683
312.995
313.07
313.034
312.992
312.979
312.96
312.967
312.992
312.984
312.761
310.999
310.766
312.603
312.964
312.985
312.942
312.929
312.918
312.925
312.946
312.921
312.646
310.93
310.465
311.622
312.289
312.6
312.702
312.72
312.564
312.533
312.37
311.953
311.233
310.301
310.443
311.416
312.017
312.351
312.471
312.49
312.419
312.413
312.348
312.145
311.76
310.808
311.087
311.976
312.187
312.27
312.268
312.25
311.625
311.672
311.81
311.943
311.94
311.264
311.347
310.968
310.396
309.911
309.687
309.624
309.004
309.001
309.089
309.364
310.16
311.396
311.52
311.507
311.559
311.628
311.697
311.744
311.791
311.683
311.57
311.465
311.365
311.259
311.119
311.29
311.439
311.58
311.715
311.834
311.89
311.785
311.658
311.518
311.364
311.175
311.355
311.54
311.665
311.778
311.879
311.96
312.052
311.994
311.924
311.846
311.76
311.589
311.897
312.019
312.065
312.108
312.148
312.183
311.838
311.812
311.795
311.783
311.774
311.765
310.642
310.202
310.142
310.095
310.077
310.111
310.998
310.98
310.98
310.988
310.996
311.091
310.284
309.741
309.648
309.573
309.531
309.547
309.975
310.021
310.109
310.212
310.309
310.614
310.417
309.733
309.524
309.339
309.184
309.093
308.715
308.824
308.997
309.184
309.37
309.794
309.487
309.327
309.175
309.009
308.845
308.732
308.732
308.826
308.944
309.051
309.146
309.233
309.008
308.951
308.895
308.832
308.763
308.708
308.61
308.632
308.673
308.72
308.774
308.836
308.766
308.633
308.527
308.394
308.271
308.231
308.166
308.208
308.31
308.429
308.545
308.744
308.774
308.613
308.494
308.365
308.255
308.216
308.243
308.288
308.401
308.523
308.641
308.803
308.788
308.629
308.518
308.419
308.317
308.268
308.281
308.327
308.396
308.452
308.517
308.614
308.238
308.272
308.3
308.314
308.296
308.272
308.616
308.671
308.72
308.704
308.65
308.588
310.94
310.69
310.201
309.64
309.192
309.024
309.183
309.304
309.807
310.627
311.589
312.452
312.429
311.285
310.4
309.774
309.629
310.056
319.925
325.811
338.103
368.311
446.96
430.017
346.008
322.145
315.545
312.876
310.011
310.507
312.17
325.316
405.245
380.132
317.203
310.672
310.283
310.297
311.129
311.032
311.147
315.196
367.204
380.14
318.57
312.549
312.317
312.371
313.184
313.199
313.964
325.681
403.164
407.202
327.368
314.428
313.51
313.512
313.477
313.632
313.646
313.669
314.505
326.665
405.278
389.515
321.101
313.499
313.178
313.251
312.379
312.206
312.447
319.141
384.41
397.994
322.067
312.161
311.46
311.454
311.161
311.785
314.183
332.625
421.619
439.113
354.402
326.454
318.206
315.459
321.979
328.696
342.637
375.528
451.66
454.188
376.307
341.215
327.13
320.619
315.523
318.303
327.019
357.463
444.057
428.751
336.993
315.142
312.114
311.399
311.566
311.575
312.624
325.369
407.377
393.383
321.519
312.777
312.352
312.46
313.341
313.218
313.582
321.974
392.485
403.337
326.204
314.661
313.905
313.898
313.903
313.404
312.593
311.674
310.819
310.741
311.773
309.96
310.209
311.021
312.093
312.947
313.442
313.353
312.89
312.117
311.128
310.334
310.052
310.147
310.381
311.099
312.031
312.774
313.197
313.007
312.589
311.86
310.987
310.35
310.146
310.119
310.254
310.709
311.421
312.165
312.867
312.455
311.76
311.141
310.575
310.189
310.054
310.19
310.374
310.853
311.483
312.107
312.604
312.389
311.749
311.099
310.507
310.131
310.016
310.032
310.146
310.541
311.175
311.894
312.885
313.186
312.231
311.428
310.737
310.29
310.149
310.096
310.208
310.601
311.249
312.026
313.261
313.298
311.864
311.099
310.527
310.2
310.101
310.251
310.348
310.703
311.404
312.297
313.576
313.736
313.183
312.841
312.448
312.122
312.006
312.88
312.902
312.986
313.178
313.466
313.908
314.079
313.612
313.264
312.982
312.863
312.839
312.739
312.78
312.967
313.341
313.753
314.239
314.375
313.896
313.398
312.963
312.706
312.638
312.939
312.96
313.03
313.072
312.954
312.547
312.475
312.954
313.098
313.037
312.927
312.888
312.893
312.916
312.983
312.942
312.447
310.658
310.864
312.577
312.921
312.943
312.902
312.89
312.732
312.712
312.603
312.269
311.557
310.416
310.274
311.183
311.932
312.38
312.559
312.597
312.541
312.516
312.383
312.027
311.395
310.446
310.842
311.779
312.186
312.405
312.483
312.495
312.4
312.404
312.379
312.269
312.035
311.151
311.356
312.107
312.191
312.164
312.099
312.074
311.079
311.134
311.285
311.535
311.748
311.53
311.648
311.58
311.208
310.871
310.693
310.658
312.15
312.081
311.986
311.893
311.808
311.733
311.427
311.572
311.705
311.844
311.995
312.139
312.182
312.026
311.848
311.67
311.489
311.295
311.387
311.603
311.785
311.959
312.122
312.257
312.347
312.246
312.117
311.978
311.831
311.611
311.901
312.114
312.213
312.305
312.39
312.456
312.573
312.542
312.503
312.461
312.417
312.268
311.567
311.349
311.306
311.273
311.262
311.289
308.834
308.835
308.934
309.084
309.262
310.299
310.702
309.221
308.698
308.259
307.93
307.76
308.26
308.309
308.463
308.684
308.952
310.117
309.748
308.911
308.45
307.997
307.625
307.432
308.176
308.235
308.406
308.635
308.882
309.616
309.953
309.543
309.426
309.313
309.229
309.205
309.089
309.15
309.265
309.406
309.564
310.133
309.749
309.24
309.062
308.893
308.746
308.657
308.636
308.737
308.891
309.053
309.209
309.398
309.164
309.062
308.956
308.842
308.722
308.629
308.604
308.665
308.744
308.818
308.888
308.956
308.783
308.699
308.632
308.577
308.53
308.502
308.135
308.171
308.282
308.409
308.525
308.712
308.731
308.485
308.351
308.226
308.129
308.091
308.16
308.195
308.305
308.452
308.609
308.833
308.932
308.702
308.526
308.369
308.243
308.196
308.224
308.276
308.396
308.537
308.707
308.93
308.631
308.503
308.41
308.334
308.258
308.209
308.09
308.101
308.095
308.06
308.016
307.968
308.248
308.379
308.452
308.464
308.406
308.346
308.689
308.825
309.206
309.727
310.263
310.653
311.537
311.678
311.714
311.987
317.939
380.792
369.646
385.918
414.296
435.079
446.306
367.878
349.237
327.839
317.586
314.886
310.616
310.26
312.251
323.359
335.034
323.502
315.892
310.26
309.818
310.417
310.439
309.781
309.686
312.135
317.734
309.362
309.165
309.303
309.766
310.46
309.907
309.311
308.932
308.795
308.876
314.308
311.329
309.451
309.368
309.871
309.893
309.521
310.226
315.579
320.205
330.93
324.411
313.703
310.253
310.244
316.358
320.411
338.417
355.441
360.052
433.717
439.627
429.078
400.687
381.601
389.694
318.887
311.601
311.21
311.133
310.965
312
312.341
312.413
313.228
326.421
410.35
400.02
323.98
313.418
312.77
312.673
312.377
313.049
312.897
313.274
313.647
315.9
334.877
418.81
425.599
338.163
316.613
313.98
313.716
313.627
313.699
313.807
314.031
316.17
335.177
420.613
414.245
331.865
315.881
314.345
314.254
314.236
314.276
314.292
314.375
315.883
331.791
413.264
402.713
326.359
314.663
313.845
313.825
313.809
313.313
313.251
313.184
313.601
322.437
394.098
396.301
409.155
427.839
442.845
449.928
371.879
354.92
336.656
326.111
322.355
312.9
312.732
314.832
323.411
333.379
321.545
315.969
311.872
311.65
312.41
312.504
311.602
311.18
313.404
316.65
310.696
310.459
310.78
311.712
312.622
312.872
312.097
311.066
310.221
309.916
310.035
310.311
311.104
312.063
312.771
313.148
312.919
312.557
311.836
310.915
310.221
309.991
309.934
310.096
310.66
311.512
312.28
312.727
312.673
311.906
311.152
310.461
310.025
309.886
309.893
310.005
310.372
310.925
311.528
312.294
312.408
311.585
310.918
310.311
309.92
309.795
309.936
310.055
310.465
311.105
311.796
312.546
312.727
312.033
311.312
310.632
310.175
310.028
309.913
310.031
310.431
311.066
311.764
312.477
312.681
311.668
310.997
310.419
310.066
309.958
309.939
310.024
310.313
310.798
311.439
312.71
313.04
312.488
312.069
311.591
311.264
311.163
311.547
311.657
311.992
312.449
312.789
313.499
313.687
313.016
312.804
312.695
312.652
312.638
312.457
312.464
312.53
312.739
313.12
313.882
314.08
313.291
312.742
312.381
312.242
312.218
312.033
312.077
312.301
312.819
313.464
314.25
314.387
313.621
312.893
312.279
311.951
311.877
312.538
312.622
312.928
313.449
314.018
314.494
314.609
314.128
313.481
312.863
312.49
312.388
312.832
312.892
313.049
313.141
312.991
312.481
310.655
312.406
312.963
312.996
312.891
312.852
312.857
312.879
312.949
312.95
312.581
310.89
310.449
311.578
312.302
312.63
312.723
312.738
312.625
312.587
312.41
311.96
311.204
310.321
310.508
311.439
312.077
312.43
312.558
312.582
312.55
312.537
312.461
312.247
311.841
310.926
311.252
312.11
312.345
312.459
312.492
312.494
312.31
312.323
312.349
312.333
312.222
311.472
311.681
312.11
312.062
311.956
311.876
311.847
311.928
311.939
311.999
312.082
312.137
311.826
311.916
312.032
312.133
312.242
312.351
312.431
312.392
312.234
312.064
311.905
311.754
311.599
311.48
311.696
311.892
312.088
312.282
312.449
312.533
312.393
312.216
312.028
311.83
311.6
311.861
312.103
312.258
312.404
312.534
312.633
312.745
312.688
312.611
312.524
312.428
312.193
312.57
312.698
312.722
312.742
312.761
312.776
310.133
310.112
310.183
310.304
310.452
311.151
310.748
309.335
308.987
308.692
308.469
308.356
307.941
308.18
308.636
309.248
309.983
311.347
310.132
309.576
308.99
308.389
307.872
307.571
307.39
307.68
308.196
308.798
309.38
309.973
308.523
308.243
307.938
307.585
307.233
307.008
306.926
307.13
307.474
307.843
308.176
308.595
308.752
308.191
307.928
307.658
307.429
307.319
308.33
308.359
308.464
308.601
308.739
309.152
309.636
309.206
309.085
308.972
308.883
308.844
308.607
308.675
308.797
308.943
309.102
309.619
309.321
309.096
308.94
308.784
308.639
308.546
308.538
308.633
308.758
308.881
308.997
309.111
308.934
308.848
308.763
308.673
308.58
308.509
308.421
308.46
308.521
308.591
308.673
308.774
308.714
308.47
308.334
308.203
308.097
308.058
308.082
308.113
308.207
308.343
308.501
308.785
308.971
308.703
308.503
308.328
308.208
308.17
308.229
308.282
308.431
308.629
308.855
309.122
309.106
308.858
308.647
308.466
308.319
308.252
308.225
308.279
308.365
308.448
308.542
308.658
307.698
307.747
307.811
307.874
307.916
307.925
308.112
308.158
308.206
308.192
308.111
307.958
310.127
309.703
309.192
308.756
308.457
308.341
308.077
308.163
308.39
308.739
309.185
309.592
310.439
310.61
310.714
311.329
321.226
402.583
399.365
417.807
431.9
425.013
413.232
344.507
348.437
343.204
328.016
320.473
310.274
311.138
315.243
321.764
322.957
315.225
313.599
310.249
309.359
309.486
309.401
309.01
309.075
310.014
310.999
308.435
308.428
308.564
308.88
309.392
308.96
308.53
308.268
308.136
308.095
309.283
309.217
308.873
308.821
309.071
309.781
310.064
310.62
312.023
311.778
316.762
318.595
317.499
316.239
314.418
336.916
342.899
345.482
339.514
332.414
397.737
410.866
427.76
429.712
422.327
418.834
334.94
314.882
310.983
310.319
310.004
311.575
312.345
314.181
321.124
346.772
429.077
419.053
332.116
314.052
312.071
312
311.685
312.351
313.027
314.256
320.205
346.5
432.253
424.022
337.784
316.583
313.389
312.88
312.267
312.46
312.879
313.29
315.16
331.948
414.004
419.004
337.063
316.383
313.291
312.619
312.155
312.588
313.051
313.682
317.188
340
423.247
433.639
345.583
318.451
314.184
313.664
313.511
313.601
313.777
314.129
317.113
339.895
426.675
417.336
333.948
316.363
314.608
314.497
314.477
314.715
314.719
314.804
316.56
334.09
416.741
424.643
338.187
317.297
314.919
314.785
314.747
314.181
314.252
314.384
316.282
334.562
419.414
408.331
328.236
314.843
313.786
313.728
313.666
313.201
312.614
311.768
310.812
310.273
310.2
314.127
318.295
329.212
363.935
439.875
439.941
355.206
322.478
314.868
312.497
311.147
311.86
315.473
340.934
434.888
420.666
330.138
313.212
311.714
311.639
312.505
312.441
313.194
325.416
407.731
403.067
324.775
313.778
313.144
313.179
313.154
313.121
314.208
329.096
415.733
423.378
333.968
314.637
312.537
312.51
311.713
312.264
316.456
340.914
433.164
439.686
349.114
318.748
312.657
311.33
312.102
314.488
322.54
353.159
432.243
426.285
352.277
324.616
315.931
312.582
310.037
310.171
310.741
311.696
312.576
313.184
312.757
312.493
311.934
311.073
310.228
309.842
309.954
310.324
311.176
312.031
312.566
312.81
312.537
312.307
311.743
310.899
310.152
309.861
309.806
310.02
310.666
311.5
312.131
312.37
312.153
311.751
311.16
310.504
309.997
309.806
309.923
310.161
310.719
311.379
311.938
312.281
312.287
311.696
311.079
310.474
310.035
309.875
309.999
310.201
310.686
311.297
311.896
312.392
312.238
311.715
311.091
310.455
309.993
309.839
309.663
309.794
310.206
310.783
311.317
311.669
311.879
311.269
310.665
310.103
309.746
309.633
309.778
309.893
310.265
310.862
311.515
312.16
312.005
311.145
310.578
310.078
309.76
309.655
309.812
309.915
310.245
310.78
311.438
312.436
312.462
312.117
311.695
311.157
310.832
310.735
312.043
312.076
312.134
312.11
312.017
312.542
313.207
312.808
312.584
312.479
312.436
312.413
312.205
312.214
312.282
312.509
312.927
313.434
313.736
313.097
312.5
312.11
311.959
311.929
311.712
311.763
312
312.532
313.246
314.079
314.431
313.264
312.533
311.907
311.59
311.514
311.319
311.41
311.789
312.454
313.33
314.77
314.508
313.763
312.942
312.247
311.85
311.747
311.609
311.725
312.172
312.964
313.897
314.636
314.726
314.22
313.486
312.772
312.33
312.21
312.762
312.851
313.072
313.223
313.097
312.573
310.754
312.474
313.032
313.022
312.864
312.804
312.818
312.852
312.964
313.014
312.662
311.005
310.561
311.674
312.383
312.676
312.735
312.739
312.65
312.62
312.47
312.049
311.306
310.438
310.621
311.548
312.171
312.493
312.598
312.617
312.592
312.582
312.521
312.331
311.946
311.055
311.391
312.205
312.422
312.521
312.549
312.552
312.439
312.445
312.454
312.428
312.32
311.616
311.832
312.285
312.285
312.228
312.18
312.161
312.295
312.295
312.318
312.346
312.342
311.993
312.099
312.226
312.337
312.45
312.561
312.637
312.603
312.45
312.277
312.11
311.949
311.782
311.677
311.903
312.109
312.312
312.506
312.666
312.755
312.627
312.456
312.265
312.059
311.819
312.109
312.36
312.515
312.655
312.773
312.856
312.96
312.919
312.86
312.786
312.699
312.462
312.796
312.849
312.829
312.808
312.793
312.787
309.447
309.467
309.584
309.756
309.964
311.074
311.632
310.162
309.647
309.212
308.888
308.715
308.25
308.52
309.032
309.735
310.601
311.749
310.207
309.71
309.151
308.579
308.096
307.82
307.341
307.497
307.787
308.11
308.39
308.582
308.445
308.237
307.969
307.642
307.318
307.118
306.751
306.864
307.093
307.341
307.56
307.737
307.707
307.541
307.324
307.058
306.787
306.62
306.598
306.779
307.076
307.372
307.621
307.83
308.049
307.66
307.427
307.171
306.937
306.813
307.643
307.684
307.805
307.953
308.096
308.458
309.082
308.768
308.673
308.579
308.506
308.483
308.528
308.582
308.684
308.807
308.942
309.393
309.245
308.988
308.836
308.686
308.551
308.464
308.457
308.556
308.689
308.819
308.944
309.069
308.936
308.84
308.74
308.633
308.523
308.435
308.355
308.414
308.493
308.582
308.683
308.804
308.765
308.473
308.314
308.173
308.07
308.035
308.127
308.158
308.256
308.41
308.591
308.889
309.142
308.866
308.632
308.423
308.283
308.244
308.315
308.381
308.561
308.795
309.048
309.311
309.251
309.017
308.795
308.586
308.411
308.331
308.246
308.307
308.405
308.498
308.584
308.665
307.479
307.544
307.643
307.75
307.83
307.862
307.929
307.956
307.973
307.939
307.851
307.704
307.501
307.64
307.74
307.804
307.827
307.824
307.879
307.937
308.09
308.348
308.706
309.054
308.556
308.281
308.029
307.872
307.797
307.769
307.711
307.731
307.852
308.101
308.484
309.313
309.784
308.604
308.075
307.774
307.674
307.654
307.803
307.886
308.133
308.84
309.943
316.116
312.648
309.815
308.574
308.165
309.342
310.34
312.887
318.219
324.029
339.708
330.645
321.25
316.109
314.689
342.289
342.664
351.167
363.036
373.74
449.976
445.812
439.721
429.275
429.552
442.155
430.911
428.235
434.248
438.812
351.141
343.864
340.889
343.436
354.85
317.956
315.182
315.501
318.178
325.024
318.54
313.502
310.714
309.539
309.515
308.106
308.28
309.147
311.355
315.154
310.367
308.808
308.015
307.806
307.736
307.595
307.601
307.702
308.056
308.841
312.041
316.052
327.48
334.748
345.759
371.883
447.213
452.725
382.408
356.975
345.313
337.154
321.842
317.061
327.879
339.398
359.024
394.076
459.063
442.526
367.513
335.55
321.975
316.057
312.239
314.643
322.273
330.973
348.191
383.136
453.443
441.148
362.479
331.097
319.62
315.38
312.919
313.771
318.391
324.781
339.355
373.589
448.561
439.198
356.146
325.61
316.544
313.8
312.301
312.033
312.815
314.007
319.242
344.754
430.166
430.167
344.886
319.112
313.766
312.585
311.83
311.922
312.385
313.025
315.914
336.112
417.909
421.398
338.325
316.555
313.399
312.8
312.338
313.255
313.444
313.91
317.593
342.979
431.065
423.264
337.064
316.381
313.906
313.571
313.366
314.607
314.618
314.703
316.144
332.034
414.278
416.658
333.856
316.683
315.062
315.036
315.075
315.282
315.214
315.273
317.707
339.299
426.688
432.688
344.045
318.825
315.468
315.327
315.411
314.848
314.838
315.028
318.129
342.033
429.968
422.065
336.37
316.598
314.397
314.264
314.259
313.706
313.705
313.756
315.036
329.981
412.331
412.223
330.284
315.04
313.684
313.587
313.495
312.997
312.454
311.625
310.668
309.983
309.742
310.7
312.643
317.765
336.353
405.06
409.659
339.322
318.064
312.578
310.834
310.957
312.056
317.519
343.389
423.473
431.66
343.028
316.414
312.099
311.603
312.424
312.502
314.818
336.48
428.022
419.009
330.98
314.39
313.065
313.036
312.989
313.181
316.142
338.133
428.407
434.574
349.029
320.867
314.081
312.676
311.88
313.528
320.718
348.912
430.552
416.149
339.949
317.198
311.927
310.838
310.296
311.441
315.23
330.911
396.729
390.326
326.769
313.888
310.932
309.947
309.616
309.882
310.593
311.574
312.416
312.961
312.48
312.187
311.659
310.888
310.111
309.743
309.781
310.11
310.899
311.706
312.217
312.455
312.377
312.207
311.728
310.934
310.159
309.827
309.699
309.9
310.547
311.393
311.976
312.128
311.742
311.407
310.884
310.316
309.871
309.689
309.827
310.095
310.685
311.339
311.827
312.05
311.458
311.456
311.093
310.515
309.985
309.774
309.819
310.011
310.528
311.126
311.558
311.657
311.871
311.647
311.153
310.527