/*--------------------------------*- C++ -*----------------------------------*\
| =========                 |                                                 |
| \\      /  F ield         | OpenFOAM: The Open Source CFD Toolbox           |
|  \\    /   O peration     | Version:  2212                                  |
|   \\  /    A nd           | Website:  www.openfoam.com                      |
|    \\/     M anipulation  |                                                 |
\*---------------------------------------------------------------------------*/
FoamFile
{
    version     2.0;
    format      ascii;
    arch        "LSB;label=32;scalar=64";
    class       volScalarField;
    location    "50";
    object      p;
}
// * * * * * * * * * * * * * * * * * * * * * * * * * * * * * * * * * * * * * //

dimensions      [0 2 -2 0 0 0 0];

internalField   nonuniform List<scalar> 
248319
(
0
0.0192786
0.0402679
0.0499098
0.0579496
0.0646524
0.0702462
0.109354
0.103288
0.0960145
0.0872922
0.0768331
0.0510441
0.0498344
0.0761381
0.0872717
0.0965682
0.104326
0.110797
0.0812581
0.076388
0.0705993
0.063671
0.0553447
0.0330922
0.0137202
0.0280095
0.0342229
0.0395234
0.0440885
0.0480627
0.0626281
0.0577899
0.0519919
0.0450525
0.0367431
0.0196816
-0.0539493
-0.0471894
-0.0434437
-0.0403194
-0.0376982
-0.0355218
-0.0212325
-0.0247003
-0.0288591
-0.033837
-0.0398024
-0.0507633
-0.0555464
-0.0402195
-0.0334771
-0.027862
-0.0231815
-0.0192648
0.0634655
0.057426
0.0501775
0.0414865
0.0310653
0.000542724
0.0309071
0.0593118
0.0692845
0.0775989
0.0845268
0.0903059
0.100135
0.0944884
0.0877135
0.0795865
0.0698431
0.0359016
0.049948
0.0749713
0.0847343
0.0928715
0.0996554
0.10531
0.109526
0.103003
0.0951824
0.0858061
0.0745668
0.0473124
0.0190743
0.0397459
0.0463727
0.051899
0.0565818
0.0606306
-0.0356328
-0.038363
-0.041093
-0.0438211
-0.0465507
-0.0535724
-0.0515053
-0.0438567
-0.0414682
-0.0392276
-0.0370892
-0.0350244
-0.140389
-0.140799
-0.141189
-0.141558
-0.141897
-0.145272
-0.144827
-0.141949
-0.140968
-0.140154
-0.139472
-0.138899
-0.132518
-0.133795
-0.135341
-0.137179
-0.139389
-0.144446
-0.145908
-0.13938
-0.136707
-0.134479
-0.132609
-0.131068
-0.133994
-0.135632
-0.13761
-0.13997
-0.142813
-0.150197
-0.0695839
-0.0525825
-0.0457622
-0.0400765
-0.0353433
-0.0313809
0.0473137
0.0406934
0.0327526
0.0232218
0.0117954
-0.0194655
-0.00916038
0.0315408
0.0452767
0.0567297
0.0662802
0.0742425
0.0901735
0.0833683
0.0752076
0.0654164
0.0536737
0.0104133
0.00965681
0.0523162
0.0641539
0.0740206
0.0822439
0.0891001
0.0978804
0.0922992
0.0856022
0.0775653
0.0679233
0.0344795
0.0489412
0.0735193
0.0833177
0.0914819
0.0982851
0.103952
0.109474
0.102779
0.0947527
0.0851301
0.0735937
0.0456343
0.0147829
0.0354086
0.0421939
0.0479069
0.0527885
0.0570349
-0.0392398
-0.0419557
-0.0446734
-0.0473915
-0.0501118
-0.0586938
-0.147623
-0.143317
-0.142599
-0.141881
-0.141164
-0.140446
-0.139446
-0.140149
-0.140848
-0.141547
-0.142246
-0.14619
-0.243999
-0.242354
-0.242282
-0.242209
-0.242137
-0.242063
-0.242971
-0.242959
-0.242925
-0.242865
-0.242767
-0.243762
-0.243296
-0.24239
-0.242264
-0.242156
-0.242072
-0.242004
-0.23868
-0.239003
-0.239384
-0.239849
-0.2404
-0.242612
-0.242864
-0.239813
-0.239093
-0.23849
-0.237991
-0.237565
-0.238127
-0.238595
-0.239159
-0.239827
-0.240627
-0.244231
-0.245667
-0.241509
-0.240533
-0.239725
-0.239041
-0.238482
-0.136229
-0.138073
-0.14029
-0.142946
-0.146133
-0.154328
-0.0773998
-0.0596849
-0.0525311
-0.0465656
-0.0416004
-0.0374541
0.0342147
0.0274375
0.0193037
0.00953971
-0.00216173
-0.0328476
-0.0252861
0.0126313
0.0266623
0.0383608
0.048114
0.0562414
0.0568232
0.0485555
0.0386324
0.0267287
0.0124482
-0.0247317
-0.0091297
0.0306893
0.0447105
0.0563969
0.0661391
0.0742601
0.0739338
0.0657319
0.0558908
0.044085
0.0299157
-0.00975518
0.00872687
0.0514141
0.0634136
0.0734109
0.0817434
0.0886882
0.0975776
0.0919182
0.085129
0.0769804
0.067204
0.0335557
0.0480713
0.0729847
0.0829131
0.0911862
0.0980815
0.103825
0.109425
0.102619
0.0944566
0.0846712
0.0729386
0.0445331
0.0132896
0.0339974
0.0409701
0.0468568
0.051897
0.0562839
-0.0407185
-0.0434417
-0.0461642
-0.0488869
-0.0516109
-0.0603959
-0.148681
-0.144126
-0.143451
-0.142775
-0.142101
-0.141425
-0.242704
-0.24278
-0.242856
-0.242933
-0.243009
-0.245097
-0.244483
-0.242462
-0.24239
-0.242318
-0.242246
-0.242172
-0.343413
-0.343411
-0.343408
-0.343407
-0.343403
-0.344182
-0.343952
-0.343389
-0.343412
-0.343433
-0.343455
-0.343475
-0.344213
-0.344161
-0.344096
-0.344019
-0.343923
-0.344011
-0.343681
-0.343586
-0.343639
-0.34369
-0.343729
-0.343763
-0.341956
-0.342003
-0.342055
-0.342123
-0.342205
-0.34303
-0.342982
-0.341726
-0.341598
-0.341485
-0.341397
-0.34133
-0.341474
-0.341556
-0.341666
-0.341799
-0.341951
-0.343475
-0.343957
-0.342141
-0.341954
-0.341789
-0.341658
-0.341546
-0.340762
-0.340956
-0.341172
-0.341442
-0.341762
-0.34401
-0.246059
-0.241093
-0.239716
-0.238571
-0.237609
-0.236822
-0.134521
-0.136838
-0.139626
-0.142966
-0.146967
-0.156225
-0.0818383
-0.0633173
-0.0553515
-0.0487078
-0.0431857
-0.0385635
0.0239708
0.0174921
0.00971531
0.000383972
-0.0108006
-0.0405092
-0.0341788
0.00127499
0.01359
0.0238586
0.0324186
0.0395519
0.0405638
0.0333924
0.0247872
0.0144633
0.00207892
-0.0330953
-0.0329097
0.00219282
0.0145644
0.0248759
0.033471
0.0406321
0.0567259
0.0484224
0.038458
0.0265053
0.0121627
-0.0248734
-0.025041
0.0120511
0.0263941
0.0383459
0.0483066
0.056606
0.07374
0.0655269
0.0556708
0.0438414
0.0296495
-0.0101031
0.00828019
0.0511203
0.0631567
0.073182
0.0815407
0.0885038
0.0974544
0.0917755
0.084964
0.0767882
0.0669741
0.0331485
0.0476868
0.0727827
0.0827529
0.0910592
0.097982
0.103749
0.109382
0.10253
0.0943127
0.0844605
0.0726494
0.044064
0.0127348
0.0335587
0.0406002
0.0465463
0.0516385
0.0560669
-0.0412011
-0.0439201
-0.0466381
-0.0493568
-0.052077
-0.0610033
-0.149286
-0.144723
-0.144045
-0.143364
-0.142684
-0.142005
-0.243161
-0.243237
-0.243314
-0.243391
-0.243467
-0.245544
-0.344825
-0.344
-0.344
-0.344
-0.344
-0.344
-0.343687
-0.343687
-0.343687
-0.343687
-0.343687
-0.344521
-0.444289
-0.443964
-0.443964
-0.443964
-0.443964
-0.443964
-0.443811
-0.44381
-0.443808
-0.443807
-0.443805
-0.444089
-0.444002
-0.443848
-0.443863
-0.443878
-0.443892
-0.443905
-0.444465
-0.444435
-0.444396
-0.444349
-0.444294
-0.444144
-0.443999
-0.444134
-0.444192
-0.444245
-0.44429
-0.444323
-0.443401
-0.443401
-0.443395
-0.443389
-0.443383
-0.443639
-0.443714
-0.443269
-0.443265
-0.443251
-0.443248
-0.443232
-0.443593
-0.443615
-0.443612
-0.443633
-0.443649
-0.444159
-0.444732
-0.444193
-0.444159
-0.444143
-0.444133
-0.444111
-0.444413
-0.444438
-0.444475
-0.44451
-0.444564
-0.445185
-0.445399
-0.444581
-0.444467
-0.444364
-0.44429
-0.444226
-0.338895
-0.339262
-0.339683
-0.340197
-0.34081
-0.343698
-0.245854
-0.239668
-0.237488
-0.23567
-0.234143
-0.232884
-0.124322
-0.127574
-0.131488
-0.136183
-0.141819
-0.154711
-0.0825139
-0.0606379
-0.051363
-0.0436277
-0.0371961
-0.0318101
0.0161662
0.00996301
0.00252132
-0.00640713
-0.0171163
-0.0446065
-0.0407142
-0.01152
-0.00121223
0.00738385
0.0145455
0.0205189
0.0212571
0.015337
0.00823594
-0.000286859
-0.0105089
-0.0395495
-0.0393227
-0.0103391
-0.000139435
0.00836264
0.0154465
0.021353
0.0213292
0.0154257
0.00835003
-0.00014508
-0.0103427
-0.039355
-0.0329616
0.00218479
0.0145461
0.0248485
0.0334313
0.0405838
0.0405358
0.033384
0.0248041
0.0145037
0.00214355
-0.0330553
-0.0251707
0.0119803
0.026322
0.0382732
0.0482314
0.0565287
0.0736437
0.0654281
0.0555694
0.0437369
0.0295421
-0.0102827
0.0080874
0.0510158
0.063057
0.0730891
0.0814529
0.0884207
0.0974013
0.0917199
0.0849023
0.0767212
0.0669027
0.0330004
0.0475554
0.0727214
0.0827017
0.0910166
0.097947
0.10372
0.109371
0.102503
0.0942668
0.084391
0.0725528
0.0439204
0.0125786
0.0335087
0.0405902
0.0465703
0.0516884
0.0561341
-0.041356
-0.0440843
-0.0468119
-0.0495393
-0.0522677
-0.0612207
-0.149544
-0.14499
-0.144308
-0.143627
-0.142944
-0.142261
-0.243429
-0.243506
-0.243583
-0.243659
-0.243736
-0.245794
-0.345039
-0.344236
-0.344236
-0.344236
-0.344236
-0.344236
-0.444394
-0.444394
-0.444394
-0.444394
-0.444394
-0.444696
-0.444508
-0.444188
-0.444188
-0.444188
-0.444188
-0.444188
-0.54375
-0.54375
-0.54375
-0.54375
-0.54375
-0.543885
-0.5437
-0.543559
-0.543559
-0.543559
-0.543559
-0.543559
-0.543448
-0.543448
-0.543448
-0.543447
-0.543446
-0.543566
-0.543535
-0.54349
-0.543498
-0.543505
-0.543512
-0.543519
-0.543904
-0.543888
-0.543869
-0.543844
-0.543815
-0.543681
-0.543685
-0.543826
-0.543865
-0.54389
-0.543909
-0.54394
-0.543614
-0.543598
-0.543608
-0.543595
-0.543587
-0.54363
-0.54394
-0.543851
-0.543845
-0.543861
-0.543842
-0.54385
-0.544593
-0.544584
-0.544604
-0.544593
-0.544598
-0.544631
-0.545637
-0.545719
-0.545719
-0.545722
-0.545712
-0.545716
-0.547065
-0.547069
-0.547074
-0.547075
-0.547081
-0.546857
-0.548134
-0.548477
-0.548452
-0.548447
-0.548427
-0.548416
-0.549319
-0.549343
-0.549383
-0.549417
-0.549465
-0.549094
-0.445346
-0.444152
-0.44388
-0.443655
-0.44347
-0.443312
-0.336085
-0.336744
-0.337515
-0.338449
-0.339573
-0.343328
-0.246676
-0.238982
-0.235669
-0.232902
-0.230588
-0.228667
-0.121772
-0.125812
-0.130677
-0.136514
-0.143516
-0.159731
-0.109597
-0.0815226
-0.0712069
-0.0626017
-0.05543
-0.0494478
-0.014512
-0.0204339
-0.0275268
-0.0360432
-0.0462555
-0.0736496
-0.0681769
-0.0358265
-0.0257758
-0.0173984
-0.0104103
-0.00458192
-0.00460156
-0.01042
-0.0173939
-0.0257611
-0.0358062
-0.0676323
-0.0675459
-0.0358222
-0.0257768
-0.0174063
-0.0104307
-0.00461602
-0.00466205
-0.010475
-0.0174526
-0.0258197
-0.0358634
-0.0676127
-0.0677029
-0.0359195
-0.0258702
-0.0174975
-0.01052
-0.00470423
0.021292
0.0153885
0.00831062
-0.000186667
-0.0103865
-0.0394326
-0.0394952
-0.0104264
-0.000225611
0.00827586
0.0153587
0.0212619
0.0405066
0.0333523
0.0247683
0.0144672
0.00210561
-0.0331224
-0.0252435
0.0119418
0.0262818
0.0382323
0.048191
0.0564903
0.0735994
0.0653838
0.0555253
0.0436951
0.0295014
-0.0103611
0.00801947
0.0509812
0.0630214
0.0730549
0.0814189
0.0883865
0.0973833
0.0917005
0.0848817
0.076701
0.0668868
0.0329631
0.0475265
0.0727086
0.0826885
0.0910044
0.097935
0.10371
0.109364
0.102494
0.094255
0.0843754
0.0725347
0.0438916
0.0125471
0.0335015
0.040587
0.0465693
0.0516903
0.0561373
-0.0413841
-0.0441152
-0.0468436
-0.0495717
-0.052302
-0.0612615
-0.149624
-0.145079
-0.144397
-0.143714
-0.143033
-0.14235
-0.243554
-0.243632
-0.243708
-0.243785
-0.243862
-0.245903
-0.345166
-0.344378
-0.344378
-0.344378
-0.344378
-0.344378
-0.44456
-0.44456
-0.44456
-0.44456
-0.44456
-0.444848
-0.544304
-0.544199
-0.544199
-0.544199
-0.544199
-0.544199
-0.543969
-0.543969
-0.543969
-0.543969
-0.543969
-0.544088
-0.643195
-0.643156
-0.643156
-0.643156
-0.643156
-0.643156
-0.642857
-0.642857
-0.642857
-0.642857
-0.642857
-0.642915
-0.642709
-0.64264
-0.64264
-0.64264
-0.64264
-0.64264
-0.642522
-0.642522
-0.642522
-0.642522
-0.642522
-0.642585
-0.642564
-0.642538
-0.642541
-0.642543
-0.642545
-0.642549
-0.642792
-0.642785
-0.642778
-0.64277
-0.642758
-0.642682
-0.64278
-0.642876
-0.642884
-0.642896
-0.642916
-0.642915
-0.642972
-0.64298
-0.642969
-0.642971
-0.642969
-0.642939
-0.643453
-0.643507
-0.643513
-0.643509
-0.643509
-0.643509
-0.644585
-0.64459
-0.644581
-0.644592
-0.644582
-0.644405
-0.645854
-0.646241
-0.646245
-0.646234
-0.646243
-0.646238
-0.648475
-0.648476
-0.648482
-0.648485
-0.64848
-0.647826
-0.650214
-0.651165
-0.65117
-0.651165
-0.651158
-0.651162
-0.653665
-0.653665
-0.653673
-0.653677
-0.65368
-0.652519
-0.653227
-0.654545
-0.65452
-0.654512
-0.65449
-0.654486
-0.548962
-0.549034
-0.549114
-0.549206
-0.549319
-0.549087
-0.445066
-0.443229
-0.442661
-0.442184
-0.441788
-0.441464
-0.332423
-0.333576
-0.334927
-0.336564
-0.33853
-0.343589
-0.247311
-0.235391
-0.230352
-0.226149
-0.22263
-0.219724
-0.12571
-0.130367
-0.135952
-0.142654
-0.150691
-0.170156
-0.126782
-0.0995954
-0.08909
-0.0803307
-0.0730288
-0.0669431
-0.0553628
-0.0619302
-0.0698189
-0.0792762
-0.0906242
-0.121107
-0.102544
-0.0664916
-0.0549499
-0.0453256
-0.0373047
-0.0306152
-0.0307625
-0.037415
-0.0453977
-0.0549738
-0.0664632
-0.101797
-0.101682
-0.0665642
-0.0550746
-0.0454964
-0.0375132
-0.0308615
-0.0309369
-0.0375894
-0.045574
-0.0551519
-0.0666454
-0.101734
-0.101824
-0.0667072
-0.0552088
-0.0456306
-0.0376433
-0.0309883
-0.0310223
-0.0376771
-0.0456667
-0.0552499
-0.0667531
-0.101894
-0.0677697
-0.0359629
-0.0259087
-0.0175311
-0.0105514
-0.00473249
-0.00474774
-0.01057
-0.0175518
-0.0259347
-0.0359887
-0.0678124
-0.0395335
-0.0104504
-0.000247287
0.00825219
0.0153398
0.0212423
0.0404901
0.0333338
0.0247486
0.0144458
0.00208166
-0.0331629
-0.0252801
0.0119218
0.0262635
0.0382146
0.0481752
0.0564725
0.0735842
0.0653692
0.0555108
0.0436807
0.0294876
-0.0103889
0.00800448
0.0509743
0.0630123
0.0730455
0.0814093
0.0883747
0.0973788
0.0916958
0.0848797
0.0767005
0.0668855
0.0329638
0.0475301
0.0727072
0.0826879
0.0910045
0.0979332
0.103708
0.109364
0.102494
0.0942546
0.0843747
0.0725335
0.0439034
0.01257
0.0335356
0.0406272
0.046613
0.0517354
0.0561842
-0.0413695
-0.0440986
-0.0468265
-0.0495569
-0.0522877
-0.0612467
-0.149633
-0.145095
-0.144413
-0.143729
-0.143046
-0.142364
-0.243601
-0.243677
-0.243754
-0.243832
-0.243908
-0.245941
-0.345239
-0.34446
-0.34446
-0.34446
-0.34446
-0.34446
-0.4447
-0.4447
-0.4447
-0.4447
-0.4447
-0.444976
-0.544538
-0.544451
-0.544451
-0.544451
-0.544451
-0.544451
-0.644033
-0.644033
-0.644033
-0.644033
-0.644033
-0.644006
-0.643558
-0.643548
-0.643548
-0.643548
-0.643548
-0.643548
-0.74288
-0.74288
-0.74288
-0.74288
-0.74288
-0.742806
-0.742159
-0.74218
-0.74218
-0.74218
-0.74218
-0.74218
-0.741693
-0.741694
-0.741693
-0.741694
-0.741693
-0.741709
-0.74142
-0.741385
-0.741385
-0.741385
-0.741385
-0.741385
-0.741221
-0.741221
-0.741221
-0.741221
-0.741221
-0.741261
-0.741218
-0.741189
-0.74119
-0.74119
-0.741191
-0.741192
-0.741309
-0.741308
-0.741308
-0.741308
-0.741308
-0.741291
-0.741424
-0.741465
-0.741466
-0.741468
-0.74147
-0.741472
-0.74176
-0.741761
-0.74176
-0.741759
-0.741759
-0.741708
-0.742333
-0.742456
-0.742453
-0.742449
-0.742458
-0.742453
-0.743714
-0.743708
-0.743708
-0.743705
-0.743714
-0.743436
-0.745151
-0.745668
-0.745661
-0.745673
-0.745665
-0.745671
-0.748455
-0.748453
-0.748457
-0.748449
-0.748451
-0.747598
-0.750739
-0.752024
-0.752022
-0.752022
-0.752023
-0.752024
-0.755828
-0.755842
-0.755825
-0.755837
-0.755834
-0.754149
-0.757009
-0.758304
-0.758305
-0.758292
-0.758306
-0.758291
-0.752352
-0.752357
-0.752356
-0.752372
-0.752373
-0.750914
-0.650129
-0.651442
-0.651386
-0.651352
-0.651309
-0.651291
-0.546537
-0.546711
-0.546889
-0.547108
-0.547381
-0.547572
-0.444605
-0.441805
-0.440731
-0.439834
-0.439082
-0.43847
-0.328995
-0.330803
-0.33296
-0.33556
-0.33867
-0.345487
-0.255376
-0.239732
-0.23322
-0.227791
-0.22326
-0.219491
-0.140957
-0.146839
-0.153882
-0.162344
-0.17248
-0.201286
-0.161031
-0.133952
-0.123861
-0.115443
-0.108422
-0.102564
-0.0845284
-0.090957
-0.0986654
-0.107912
-0.118997
-0.153278
-0.152028
-0.118422
-0.107525
-0.0984398
-0.0908684
-0.0845561
-0.0557027
-0.0621187
-0.0698256
-0.0790682
-0.0901576
-0.119903
-0.119719
-0.0901946
-0.0791332
-0.0699139
-0.0622313
-0.0558301
-0.0559248
-0.0623244
-0.0700027
-0.0792193
-0.0902758
-0.11978
-0.119869
-0.0903463
-0.0792867
-0.0700678
-0.0623848
-0.0559854
-0.0560217
-0.0624232
-0.0701089
-0.0793327
-0.0903973
-0.119938
-0.119982
-0.0904267
-0.0793611
-0.0701331
-0.0624472
-0.0560405
-0.0310415
-0.037696
-0.045688
-0.0552738
-0.0667817
-0.10194
-0.101967
-0.0667953
-0.0552872
-0.0457014
-0.0377095
-0.0310495
-0.00476054
-0.0105785
-0.0175634
-0.0259463
-0.0360025
-0.0678388
-0.0395557
-0.0104633
-0.000258255
0.00824344
0.0153287
0.0212344
0.0404817
0.0333268
0.0247383
0.0144348
0.00206959
-0.0331859
-0.0252988
0.0119136
0.0262561
0.0382065
0.0481676
0.0564668
0.0735816
0.0653664
0.0555063
0.0436803
0.0294862
-0.0103975
0.00800541
0.050977
0.0630148
0.0730453
0.0814072
0.0883743
0.0973788
0.0916978
0.0848836
0.0767055
0.0668908
0.032973
0.0475373
0.0727106
0.0826914
0.0910067
0.097936
0.103709
0.109364
0.102493
0.0942553
0.0843769
0.0725358
0.0439104
0.0125831
0.0335444
0.0406348
0.0466216
0.0517412
0.0561879
-0.0413465
-0.0440753
-0.0468041
-0.0495345
-0.0522664
-0.0612225
-0.149619
-0.145084
-0.144402
-0.143718
-0.143033
-0.142352
-0.243615
-0.243691
-0.24377
-0.243848
-0.243924
-0.245952
-0.345288
-0.344514
-0.344514
-0.344514
-0.344514
-0.344514
-0.444821
-0.444821
-0.444821
-0.444821
-0.444821
-0.445089
-0.544782
-0.544717
-0.544717
-0.544717
-0.544717
-0.544717
-0.644589
-0.644589
-0.644589
-0.644589
-0.644589
-0.644512
-0.744675
-0.74494
-0.74494
-0.74494
-0.744941
-0.74494
-0.743819
-0.743819
-0.743819
-0.743819
-0.743819
-0.743662
-0.843836
-0.844192
-0.844192
-0.844192
-0.844192
-0.844192
-0.842449
-0.842449
-0.842449
-0.842449
-0.842449
-0.842261
-0.841132
-0.841213
-0.841213
-0.841213
-0.841213
-0.841213
-0.840416
-0.840416
-0.840416
-0.840415
-0.840416
-0.840395
-0.839955
-0.839944
-0.839944
-0.839944
-0.839944
-0.839944
-0.839695
-0.839695
-0.839695
-0.839695
-0.839695
-0.83972
-0.839634
-0.839601
-0.839602
-0.839601
-0.839599
-0.839598
-0.839623
-0.839627
-0.839631
-0.839635
-0.83964
-0.839658
-0.839787
-0.839791
-0.83979
-0.839782
-0.839779
-0.839776
-0.840149
-0.840154
-0.840145
-0.84015
-0.840151
-0.840103
-0.840729
-0.840862
-0.840855
-0.840859
-0.840864
-0.840859
-0.842095
-0.842095
-0.842103
-0.842092
-0.842098
-0.841812
-0.843519
-0.844043
-0.844044
-0.844044
-0.844045
-0.84404
-0.846887
-0.846901
-0.846887
-0.846894
-0.846895
-0.84601
-0.849275
-0.850681
-0.850672
-0.850674
-0.850682
-0.850676
-0.854989
-0.854979
-0.854984
-0.854975
-0.854985
-0.852837
-0.85602
-0.858657
-0.858654
-0.858653
-0.858653
-0.858655
-0.859242
-0.859247
-0.859243
-0.859246
-0.859242
-0.858014
-0.901198
-0.90161
-0.901598
-0.901589
-0.901578
-0.901572
-0.925077
-0.933759
-0.940997
-0.947032
-0.95206
-0.952058
-0.94703
-0.941
-0.933768
-0.92509
-0.925101
-0.933778
-0.941012
-0.947035
-0.952051
-0.952053
-0.94703
-0.941011
-0.933783
-0.925118
-0.925133
-0.933794
-0.941019
-0.947025
-0.952044
-0.952193
-0.947029
-0.940838
-0.933405
-0.924485
-0.925695
-0.934397
-0.941653
-0.947692
-0.952729
-0.909915
-0.903481
-0.895761
-0.886495
-0.875373
-0.848787
-0.805062
-0.838026
-0.851593
-0.862899
-0.87232
-0.880168
-0.880015
-0.872001
-0.862378
-0.850832
-0.836975
-0.837522
-0.851193
-0.862583
-0.872076
-0.879984
-0.879998
-0.872088
-0.862591
-0.851195
-0.837518
-0.837518
-0.851201
-0.862597
-0.872095
-0.880011
-0.880028
-0.872107
-0.862605
-0.8512
-0.837518
-0.837515
-0.851201
-0.862607
-0.872113
-0.880031
-0.865298
-0.856809
-0.846621
-0.834393
-0.81972
-0.819721
-0.83439
-0.846615
-0.856803
-0.86529
-0.865282
-0.856795
-0.84661
-0.834387
-0.819722
-0.819718
-0.834383
-0.846602
-0.856783
-0.865268
-0.865252
-0.856773
-0.846593
-0.834377
-0.819718
-0.818235
-0.833327
-0.845903
-0.85638
-0.865108
-0.865061
-0.856229
-0.845627
-0.832903
-0.817632
-0.782402
-0.782338
-0.782409
-0.782394
-0.782375
-0.782357
-0.782353
-0.718831
-0.718889
-0.718934
-0.719003
-0.719081
-0.717987
-0.636452
-0.636852
-0.636476
-0.636177
-0.635908
-0.6357
-0.536315
-0.537028
-0.537858
-0.538882
-0.540089
-0.542429
-0.446161
-0.439735
-0.436576
-0.433951
-0.431745
-0.42992
-0.321617
-0.325323
-0.329756
-0.335084
-0.341468
-0.356622
-0.302158
-0.273988
-0.264385
-0.256385
-0.249709
-0.244147
-0.204075
-0.209656
-0.216365
-0.224407
-0.234044
-0.260244
-0.222134
-0.195118
-0.185133
-0.176804
-0.169864
-0.164076
-0.15027
-0.156532
-0.164039
-0.173045
-0.18385
-0.214788
-0.191917
-0.153458
-0.141737
-0.131964
-0.123818
-0.117027
-0.116781
-0.123468
-0.131484
-0.141105
-0.152649
-0.190285
-0.189912
-0.152596
-0.141087
-0.131494
-0.123505
-0.116839
-0.0846751
-0.0909734
-0.0985345
-0.107608
-0.118489
-0.151844
-0.151889
-0.11857
-0.107693
-0.0986265
-0.0910706
-0.084779
-0.0848443
-0.0911391
-0.0986975
-0.107766
-0.118652
-0.151984
-0.152059
-0.118705
-0.107815
-0.0987435
-0.0911828
-0.0848859
-0.0849061
-0.0912056
-0.0987721
-0.107843
-0.118738
-0.152106
-0.152136
-0.118757
-0.107862
-0.0987883
-0.0912198
-0.0849167
-0.0560517
-0.062461
-0.0701492
-0.0793772
-0.0904447
-0.120009
-0.120024
-0.0904548
-0.0793839
-0.0701572
-0.0624667
-0.0560575
-0.0310557
-0.0377156
-0.0457075
-0.0552978
-0.066804
-0.101982
-0.0678497
-0.0360102
-0.0259516
-0.0175713
-0.0105839
-0.00476597
0.0212288
0.0153231
0.00823774
-0.000266015
-0.0104695
-0.0395664
-0.0331973
0.00206381
0.0144291
0.0247326
0.033323
0.0404786
0.0564684
0.0481651
0.0382042
0.0262556
0.011913
-0.0253054
-0.010397
0.0294914
0.0436854
0.0555108
0.0653667
0.073582
0.088374
0.0814093
0.07305
0.0630196
0.0509825
0.00801131
0.0329816
0.0668973
0.0767084
0.0848858
0.0917008
0.0973788
0.103711
0.0979362
0.0910059
0.0826929
0.0727157
0.0475451
0.0439201
0.0725409
0.0843798
0.0942557
0.102493
0.109363
0.0561997
0.0517535
0.0466333
0.0406471
0.0335575
0.0125983
-0.0612029
-0.052249
-0.049518
-0.046789
-0.0440579
-0.041328
-0.142339
-0.143022
-0.143704
-0.144387
-0.14507
-0.149605
-0.245956
-0.243928
-0.243851
-0.243774
-0.243696
-0.243619
-0.344553
-0.344553
-0.344553
-0.344553
-0.344553
-0.345323
-0.445191
-0.44493
-0.44493
-0.44493
-0.44493
-0.44493
-0.544974
-0.544974
-0.544974
-0.544974
-0.544974
-0.545017
-0.645018
-0.645149
-0.645149
-0.645149
-0.645149
-0.645149
-0.74611
-0.74611
-0.74611
-0.74611
-0.74611
-0.745721
-0.847848
-0.84872
-0.84872
-0.84872
-0.84872
-0.84872
-0.846375
-0.846375
-0.846375
-0.846375
-0.846375
-0.845781
-0.948321
-0.949499
-0.949499
-0.949499
-0.949499
-0.949499
-0.945468
-0.945468
-0.945468
-0.945468
-0.945468
-0.944785
-0.942059
-0.942413
-0.942413
-0.942413
-0.942413
-0.942413
-0.940368
-0.940368
-0.940368
-0.940368
-0.940368
-0.940206
-0.939057
-0.939115
-0.939115
-0.939115
-0.939115
-0.939115
-0.938407
-0.938407
-0.938407
-0.938407
-0.938407
-0.938399
-0.938058
-0.938042
-0.938042
-0.938042
-0.938042
-0.938042
-0.937874
-0.937878
-0.937879
-0.937879
-0.937881
-0.93791
-0.937882
-0.93785
-0.937844
-0.937838
-0.937832
-0.937827
-0.937938
-0.937942
-0.937946
-0.937953
-0.937964
-0.937976
-0.938252
-0.938287
-0.938282
-0.938282
-0.938282
-0.938282
-0.938877
-0.938877
-0.938877
-0.93888
-0.938877
-0.938772
-0.939669
-0.939895
-0.939905
-0.939894
-0.939903
-0.939898
-0.941525
-0.941519
-0.941519
-0.941522
-0.941522
-0.941095
-0.94321
-0.94394
-0.943941
-0.943942
-0.94393
-0.943946
-0.947224
-0.94722
-0.947229
-0.947231
-0.94722
-0.946002
-0.949073
-0.951226
-0.951232
-0.951234
-0.951224
-0.951227
-0.955655
-0.955641
-0.955654
-0.95565
-0.955647
-0.951598
-0.967683
-0.985595
-0.991734
-0.996849
-1.00111
-1.00466
-1.0041
-1.0041
-1.0041
-1.0041
-1.00411
-1.0006
-1.00061
-1.00061
-1.00061
-1.00061
-0.99642
-0.996415
-0.996407
-0.996401
-0.996391
-0.991341
-0.991353
-0.991364
-0.991384
-0.991401
-0.985364
-0.985335
-0.985312
-0.985299
-0.985277
-0.969892
-0.969894
-0.969914
-0.969926
-0.96994
-1.05308
-1.05306
-1.05304
-1.05304
-1.05302
-1.05702
-1.05704
-1.05706
-1.05708
-1.05711
-1.05956
-1.05954
-1.05952
-1.0595
-1.05949
-1.06155
-1.06156
-1.06157
-1.06159
-1.0616
-1.0633
-1.06329
-1.06328
-1.06328
-1.06327
-1.0647
-1.06471
-1.0647
-1.06471
-1.06471
-1.06516
-1.06371
-1.06195
-1.05984
-1.05731
-1.05275
-1.05249
-1.05788
-1.06046
-1.0626
-1.06439
-1.06587
-1.00575
-1.00227
-0.998094
-0.993084
-0.987067
-0.965377
-0.902003
-0.904912
-0.929482
-0.937238
-0.943705
-0.94909
-0.953572
-0.910387
-0.904618
-0.897697
-0.889393
-0.879428
-0.851438
-0.807341
-0.841163
-0.853827
-0.864381
-0.873172
-0.880501
-0.865274
-0.856757
-0.846537
-0.834272
-0.819551
-0.784412
-0.783326
-0.818589
-0.833627
-0.846157
-0.856599
-0.865295
-0.865126
-0.856113
-0.845293
-0.832306
-0.816719
-0.781273
-0.780834
-0.817159
-0.832628
-0.845517
-0.856253
-0.865201
-0.865344
-0.865356
-0.865366
-0.865371
-0.865378
-0.856628
-0.856624
-0.85662
-0.856614
-0.856605
-0.84612
-0.846122
-0.846124
-0.846124
-0.846126
-0.833521
-0.833523
-0.833528
-0.833531
-0.833533
-0.818432
-0.818421
-0.818414
-0.818402
-0.818396
-0.78036
-0.780389
-0.780425
-0.780478
-0.78053
-0.716454
-0.716184
-0.715954
-0.715768
-0.715605
-0.630725
-0.631255
-0.631897
-0.632647
-0.633567
-0.634422
-0.54165
-0.53704
-0.534652
-0.532655
-0.531008
-0.52961
-0.420801
-0.423729
-0.427265
-0.431508
-0.436583
-0.447953
-0.370541
-0.352047
-0.344548
-0.338303
-0.33309
-0.328739
-0.270591
-0.275932
-0.282342
-0.29003
-0.299254
-0.325122
-0.317661
-0.287999
-0.278397
-0.270391
-0.26372
-0.258158
-0.220274
-0.22655
-0.234081
-0.243116
-0.253951
-0.292169
-0.251771
-0.218287
-0.207725
-0.198915
-0.191567
-0.185445
-0.184869
-0.190845
-0.198009
-0.206607
-0.216918
-0.249829
-0.212895
-0.182756
-0.17226
-0.163516
-0.15622
-0.150144
-0.150115
-0.156159
-0.163408
-0.172101
-0.182539
-0.212399
-0.212337
-0.18254
-0.172119
-0.163436
-0.156201
-0.150164
-0.116924
-0.12358
-0.131565
-0.141147
-0.152648
-0.189886
-0.189961
-0.152715
-0.141214
-0.131629
-0.123644
-0.116986
-0.117026
-0.123688
-0.131675
-0.141264
-0.152766
-0.190031
-0.190082
-0.1528
-0.141296
-0.131704
-0.123712
-0.117053
-0.117065
-0.123725
-0.13172
-0.141311
-0.152821
-0.190113
-0.19013
-0.152832
-0.14132
-0.131727
-0.123731
-0.117071
-0.0849222
-0.0912255
-0.0987935
-0.107872
-0.118765
-0.152152
-0.152162
-0.11877
-0.107876
-0.0987936
-0.0912279
-0.0849229
-0.0560579
-0.0624672
-0.0701599
-0.0793872
-0.0904602
-0.120032
-0.10199
-0.066809
-0.0553026
-0.04571
-0.0377155
-0.0310588
-0.00476528
-0.0105903
-0.0175741
-0.025957
-0.0360158
-0.0678574
-0.0395726
-0.0104729
-0.00026876
0.00823284
0.015323
0.0212254
0.0404786
0.033321
0.0247319
0.014429
0.00206217
-0.0332018
-0.0253061
0.0119138
0.0262571
0.0382066
0.0481656
0.0564704
0.0735824
0.0653691
0.0555158
0.0436886
0.0294958
-0.010395
0.00801494
0.0509876
0.0630228
0.0730545
0.0814116
0.088376
0.0973794
0.0917024
0.0848865
0.0767101
0.0669005
0.0329883
0.0475525
0.0727177
0.0826938
0.091008
0.0979368
0.10371
0.109363
0.102494
0.0942575
0.0843816
0.0725429
0.0439254
0.012605
0.0335588
0.0406484
0.0466342
0.051754
0.056201
-0.0413193
-0.0440478
-0.046778
-0.0495081
-0.0522378
-0.0611896
-0.149597
-0.145062
-0.144378
-0.143695
-0.143013
-0.142329
-0.243622
-0.2437
-0.243776
-0.243853
-0.243931
-0.245958
-0.345351
-0.344583
-0.344583
-0.344583
-0.344583
-0.344583
-0.445021
-0.445021
-0.445021
-0.445021
-0.445021
-0.445273
-0.54521
-0.545186
-0.545186
-0.545186
-0.545186
-0.545186
-0.645622
-0.645622
-0.645622
-0.645622
-0.645622
-0.645446
-0.746617
-0.747117
-0.747117
-0.747117
-0.747117
-0.747117
-0.850787
-0.850787
-0.850787
-0.850787
-0.850787
-0.849648
-0.956299
-0.957474
-0.957497
-0.957521
-0.957544
-0.95757
-0.953894
-0.953894
-0.953894
-0.953895
-0.953895
-0.952395
-1.06158
-1.06194
-1.062
-1.06207
-1.06214
-1.0622
-1.05447
-1.05447
-1.05447
-1.05447
-1.05447
-1.05327
-1.04648
-1.04764
-1.04764
-1.04764
-1.04764
-1.04764
-1.04273
-1.04273
-1.04273
-1.04273
-1.04273
-1.04215
-1.03936
-1.03962
-1.03962
-1.03962
-1.03962
-1.03962
-1.03781
-1.03781
-1.03781
-1.03781
-1.03781
-1.0377
-1.03679
-1.03682
-1.03682
-1.03682
-1.03682
-1.03682
-1.03632
-1.03632
-1.03632
-1.03632
-1.03632
-1.03633
-1.03611
-1.03609
-1.03609
-1.03609
-1.03609
-1.03608
-1.03598
-1.03599
-1.03599
-1.03599
-1.036
-1.03603
-1.03607
-1.03605
-1.03604
-1.03603
-1.03603
-1.03603
-1.03626
-1.03626
-1.03626
-1.03627
-1.03626
-1.03625
-1.03658
-1.03664
-1.03665
-1.03665
-1.03664
-1.03664
-1.03731
-1.03731
-1.03732
-1.03731
-1.03731
-1.03717
-1.03813
-1.03838
-1.03838
-1.03838
-1.03838
-1.03838
-1.03999
-1.04
-1.03999
-1.03999
-1.03999
-1.03957
-1.04152
-1.0422
-1.0422
-1.0422
-1.0422
-1.0422
-1.04498
-1.04498
-1.04498
-1.04498
-1.04498
-1.04384
-1.04722
-1.04851
-1.04851
-1.04851
-1.04852
-1.04851
-1.13706
-1.13705
-1.13705
-1.13705
-1.13705
-1.13809
-1.13575
-1.13331
-1.13221
-1.13129
-1.13053
-1.12989
-1.12959
-1.12958
-1.12959
-1.12958
-1.12959
-1.13019
-1.13019
-1.1302
-1.1302
-1.13021
-1.13095
-1.13093
-1.13093
-1.13092
-1.13091
-1.13178
-1.13179
-1.1318
-1.13182
-1.13184
-1.1329
-1.13288
-1.13285
-1.13283
-1.13282
-1.13493
-1.13494
-1.13495
-1.13497
-1.13498
-1.22013
-1.22011
-1.2201
-1.22009
-1.22008
-1.20668
-1.2067
-1.20672
-1.20674
-1.20677
-1.20235
-1.20232
-1.20231
-1.2023
-1.20228
-1.19862
-1.19863
-1.19864
-1.19864
-1.19866
-1.19559
-1.19558
-1.19558
-1.19558
-1.19557
-1.19302
-1.19302
-1.19302
-1.19303
-1.19303
-1.1933
-1.1959
-1.199
-1.20273
-1.2072
-1.22252
-1.22524
-1.20708
-1.20275
-1.19914
-1.19613
-1.19362
-1.13046
-1.13111
-1.13189
-1.13282
-1.13394
-1.13685
-1.13741
-1.13419
-1.13311
-1.1322
-1.13145
-1.13082
-1.06636
-1.06494
-1.06322
-1.06116
-1.05869
-1.05288
-0.965326
-0.989179
-0.994789
-0.999458
-1.00335
-1.00659
-1.00705
-1.00391
-1.00013
-0.995603
-0.990169
-0.967144
-0.907491
-0.931556
-0.938836
-0.944903
-0.949958
-0.954164
-0.910585
-0.905135
-0.898597
-0.890748
-0.881334
-0.852493
-0.807831
-0.84267
-0.854922
-0.86513
-0.873638
-0.880727
-0.865384
-0.857038
-0.847019
-0.834997
-0.82057
-0.785361
-0.784272
-0.819619
-0.834354
-0.846631
-0.856861
-0.865383
-0.880723
-0.873288
-0.864373
-0.853667
-0.840822
-0.805538
-0.805018
-0.839319
-0.852598
-0.863658
-0.872874
-0.880553
-0.880312
-0.872116
-0.862278
-0.85047
-0.836298
-0.802512
-0.79876
-0.796097
-0.795938
-0.795802
-0.795697
-0.795601
-0.834184
-0.84899
-0.861329
-0.871613
-0.880178
-0.880176
-0.871617
-0.861339
-0.849005
-0.834207
-0.834232
-0.84902
-0.861348
-0.871616
-0.88017
-0.880163
-0.871616
-0.861356
-0.849041
-0.834263
-0.834297
-0.849063
-0.861365
-0.871617
-0.880154
-0.880198
-0.871697
-0.861491
-0.849243
-0.834543
-0.871365
-0.88365
-0.893894
-0.902421
-0.90953
-0.909206
-0.902071
-0.893516
-0.883237
-0.87091
-0.870856
-0.883203
-0.893496
-0.902067
-0.909208
-0.909207
-0.902058
-0.893472
-0.883178
-0.870816
-0.870777
-0.883153
-0.893458
-0.902052
-0.909208
-0.90921
-0.902045
-0.89345
-0.883133
-0.870752
-0.837141
-0.837265
-0.837409
-0.837578
-0.837787
-0.840825
-0.812869
-0.807862
-0.807279
-0.806794
-0.806386