/*--------------------------------*- C++ -*----------------------------------*\
| =========                 |                                                 |
| \\      /  F ield         | OpenFOAM: The Open Source CFD Toolbox           |
|  \\    /   O peration     | Version:  2212                                  |
|   \\  /    A nd           | Website:  www.openfoam.com                      |
|    \\/     M anipulation  |                                                 |
\*---------------------------------------------------------------------------*/
FoamFile
{
    version     2.0;
    format      ascii;
    arch        "LSB;label=32;scalar=64";
    class       volScalarField;
    location    "50";
    object      T;
}
// * * * * * * * * * * * * * * * * * * * * * * * * * * * * * * * * * * * * * //

dimensions      [0 0 0 1 0 0 0];

internalField   nonuniform List<scalar> 
248319
(
300
300
300
300
300
300
300
300
300
300
300
300
300
300
300
300
300
300
300
300
300
300
300
300
300
300
300
300
300
300
300
300
300
300
300
300
300
300
300
300
300
300
300
300
300
300
300
300
300
300
300
300
300
300
300
300
300
300
300
300
300
300
300
300
300
300
300
300
300
300
300
300
300
300
300
300
300
300
300
300
300
300
300
300
300
300
300
300
300
300
300
300
300
300
300
300
300
300
300
300
300
300
300
300
300
300
300
300
300
300
300
300
300
300
300
300
300
300
300
300
300
300
300
300
300
300
300
300
300
300
300
300
300
300
300
300
300
300
300
300
300
300
300
300
300
300
300
300
300
300
300
300
300
300
300
300
300
300
300
300
300
300
300
300
300
300
300
300
300
300
300
300
300
300
300
300
300
300
300
300
300
300
300
300
300
300
300
300
300
300
300
300
300
300
300
300
300
300
300
300
300
300
300
300
300
300
300
300
300
300
300
300
300
300
300
300
300
300
300
300
300
300
300
300
300
300
300
300
300
300
300
300
300
300
300
300
300
300
300
300
300
300
300
300
300
300
300
300
300
300
300
300
300
300
300
300
300
300
300
300
300
300
300
300
300
300
300
300
300
300
300
300
300
300
300
300
300
300
300
300
300
300
300
300
300
300
300
300
300
300
300
300
300
300
300
300
300
300
300
300
300
300
300
300
300
300
300
300
300
300
300
300
300
300
300
300
300
300
300
300
300
300
300
300
300
300
300
300
300
300
300
300
300
300
300
300
300
300
300
300
300
300
300
300
300
300
300
300
300
300
300
300
300
300
300
300
300
300
300
300
300
300
300
300
300
300
300
300
300
300
300
300
300
300
300
300
300
300
300
300
300
300
300
300
300
300
300
300
300
300
300
300
300
300
300
300
300
300
300
300
300
300
300
300
300
300
300
300
300
300
300
300
300
300
300
300
300
300
300
300
300
300.001
300
300
300
300
300
300
300
300
300
300
300.001
300.002
300
300
300
300
300
300
300
300
300
300
300.001
300.001
300
300
300
300
300
300
300
300
300
300
300
300
300
300
300
300
300
300
300
300
300
300
300
300
300
300
300
300
300
300
300
300
300
300
300
300
300
300
300
300
300
300
300
300
300
300
300
300
300
300
300
300
300
300
300
300
300
300
300
300
300
300
300
300
300
300
300
300
300
300
300
300
300
300
300
300
300
300
300
300
300
300
300
300
300
300
300
300
300
300
300
300
300
300
300
300
300
300
300
300
300
300
300
300
300
300
300
300
300
300
300
300
300
300
300
300
300
300
300
300
300
300
300
300
300
300
300
300
300
300
300
300.001
300
300
300
300.001
300.001
300
300
300
300
300
300.001
300.001
300
300
300
300
300
300
300
300
300
300.001
300.001
300.001
300.001
300
300
300
300
300
300
300
300
300
300.001
300.001
300
300
300
300
300
300
300
300
300
300.001
300.002
300.003
300.001
300
300
300
300
300
300
300
300.001
300.001
300.004
300.002
300.001
300
300
300
300
300
300
300
300
300.001
300.003
300.002
300
300
300
300
300
300
300
300
300
300
300.001
300
300
300
300
300
300
300
300
300
300
300
300
300
300
300
300
300
300
300
300
300
300
300
300
300
300
300
300
300
300
300
300
300
300
300
300
300
300
300
300
300
300
300
300
300
300
300
300
300
300
300
300
300
300
300
300
300
300
300
300
300
300
300
300
300
300
300
300
300
300
300
300
300
300
300
300
300
300
300
300
300
300
300
300
300
300
300
300
300
300
300
300
300
300
300
300
300
300
300
300
300
300
300
300
300
300
300
300
300
300
300
300
300
300
300
300
300
300
300
300
300
300
300
300
300
300
300.001
300.001
300
300
300
300
300
300.001
300.002
300.004
300.006
300.007
300.023
300.019
300.012
300.006
300.004
300.004
300.004
300.002
300.002
300.002
300.002
300.002
300.001
300.001
300.001
300.001
300.002
300.004
300.004
300.002
300.001
300.001
300.001
300.001
300
300.001
300.001
300.001
300.002
300.004
300.004
300.001
300.001
300
300
300
300
300
300
300.001
300.001
300.002
300.003
300.001
300.001
300
300
300
300
300
300.001
300.001
300.002
300.004
300.006
300.002
300.001
300.001
300
300
300.001
300.001
300.001
300.002
300.003
300.009
300.012
300.004
300.002
300.001
300.001
300.001
300
300
300.001
300.001
300.002
300.006
300.008
300.002
300.001
300.001
300
300
300
300
300
300.001
300.001
300.005
300.002
300.001
300
300
300
300
300
300
300
300
300
300.001
300
300
300
300
300
300
300
300
300
300
300
300
300
300
300
300
300
300
300
300
300
300
300
300
300
300
300
300
300
300
300
300
300
300
300
300
300
300
300
300
300
300
300
300
300
300
300
300
300
300
300
300
300
300
300
300
300
300
300
300
300
300
300
300
300
300
300
300
300
300
300
300
300
300
300
300
300
300
300
300
300
300
300
300
300
300
300
300
300
300
300
300
300
300
300
300
300
300
300
300
300
300
300
300
300
300
300
300
300
300
300
300
300
300
300
300
300
300
300
300
300
300
300
300
300
300
300
300
300
300
300
300
300
300
300
300
300
300
300.011
300.009
300.005
300.001
300
300
300
300.003
300.012
300.03
300.051
300.06
300.164
300.139
300.081
300.033
300.011
300.006
300.023
300.021
300.051
300.132
300.238
300.288
300.04
300.034
300.021
300.012
300.01
300.016
300.012
300.007
300.004
300.004
300.004
300.004
300.002
300.002
300.002
300.004
300.006
300.01
300.009
300.005
300.004
300.002
300.002
300.001
300.001
300.001
300.002
300.003
300.005
300.007
300.005
300.002
300.001
300.001
300.001
300
300.001
300.001
300.001
300.002
300.003
300.008
300.006
300.002
300.001
300.001
300
300
300.001
300.001
300.001
300.002
300.003
300.009
300.013
300.005
300.003
300.002
300.001
300.001
300.001
300.002
300.002
300.004
300.006
300.017
300.023
300.008
300.005
300.003
300.002
300.002
300.002
300.003
300.004
300.006
300.011
300.03
300.015
300.005
300.003
300.002
300.001
300.001
300.001
300.001
300.002
300.004
300.007
300.019
300.01
300.003
300.002
300.001
300.001
300
300
300
300.001
300.001
300.002
300.006
300.003
300.001
300
300
300
300
300
300
300
300
300
300.001
300.001
300
300
300
300
300
300
300
300
300
300
300
300
300
300
300
300
300
300
300
300
300
300
300
300
300
300
300
300
300
300
300
300
300
300
300
300
300
300
300
300
300
300
300
300
300
300
300
300
300
300
300
300
300
300
300
300
300
300
300
300
300
300
300
300
300
300
300
300
300
300
300
300
300
300
300
300
300
300
300
300
300
300
300
300
300
300
300
300
300
300
300
300
300
300
300
300
300
300
300
300
300
300
300
300
300
300
300
300
300
300
300
300
300
300
300
300
300
300
300
300
300
300
300
300
300
300
300
300
300
300
300
300
300
300
300
300
300
300
300
300
300
300
300
300
300
300
300.001
300.003
300.004
300.053
300.045
300.025
300.008
300.001
300
300.001
300.012
300.044
300.113
300.192
300.226
300.548
300.464
300.264
300.099
300.028
300.01
300.034
300.042
300.132
300.382
300.722
300.882
301.05
300.845
300.425
300.14
300.053
300.051
300.04
300.031
300.063
300.162
300.299
300.365
300.05
300.042
300.027
300.016
300.017
300.031
300.024
300.014
300.008
300.006
300.006
300.006
300.003
300.003
300.005
300.008
300.013
300.02
300.017
300.01
300.007
300.004
300.003
300.002
300.001
300.002
300.002
300.004
300.006
300.016
300.011
300.006
300.004
300.002
300.002
300.001
300.002
300.002
300.002
300.004
300.006
300.016
300.023
300.009
300.006
300.003
300.002
300.002
300.001
300.001
300.002
300.003
300.004
300.012
300.016
300.006
300.004
300.002
300.002
300.002
300.002
300.002
300.003
300.005
300.008
300.022
300.029
300.011
300.006
300.004
300.003
300.003
300.004
300.004
300.005
300.008
300.014
300.036
300.044
300.017
300.01
300.007
300.005
300.004
300.003
300.003
300.005
300.008
300.014
300.038
300.048
300.018
300.011
300.006
300.004
300.004
300.001
300.002
300.003
300.005
300.008
300.024
300.013
300.004
300.002
300.001
300.001
300.001
300
300
300.001
300.001
300.003
300.008
300.004
300.001
300.001
300
300
300
300
300
300
300
300.001
300.001
300.001
300
300
300
300
300
300
300
300
300
300
300
300
300
300
300
300
300
300
300
300
300
300
300
300
300
300
300
300
300
300
300
300
300
300
300
300
300
300
300
300
300
300
300
300
300
300
300
300
300
300
300
300
300
300
300
300
300
300
300
300
300
300
300
300
300
300
300
300
300
300
300
300
300
300
300
300
300
300
300
300
300
300
300
300
300
300
300
300
300
300
300
300
300
300
300
300
300
300
300
300
300
300
300
300
300
300
300
300
300
300
300
300
300
300
300
300
300
300
300
300
300
300
300
300
300
300
300
300
300
300
300
300
300
300
300
300
300
300
300
300
300
300
300
300
300
300
300
300
300
300
300
300
300
300
300
300
300
300.001
300.004
300.01
300.012
300.138
300.118
300.07
300.025
300.005
300
300.002
300.027
300.103
300.262
300.437
300.508
301.123
300.951
300.538
300.194
300.05
300.015
300.044
300.065
300.239
300.756
301.489
301.82
302.788
302.143
300.939
300.257
300.069
300.046
300.065
300.095
300.384
301.512
303.517
304.54
309.388
317.468
339.653
386.186
456.585
454.13
380.027
331.747
312.169
306.454
302.469
305.698
321.259
370.172
451.723
446.642
357.683
312.993
302.141
300.59
300.161
300.949
308.229
346.061
439.481
432.566
338.509
306.093
300.633
300.106
300.174
300.648
305.478
335.03
428.173
426.743
333.878
305.215
300.625
300.177
300.147
300.134
300.153
300.479
304.203
330.184
422.8
424.386
330.593
304.023
300.378
300.088
300.121
300.58
305.731
338.539
435.269
446.941
352.359
310.213
301.53
300.489
302.819
305.904
320.158
369.036
455.814
461.977
385.889
334.481
315.03
308.789
313.776
322.949
345.889
397.654
464.762
464.582
396.777
345.444
322.554
313.345
308.488
314.591
333.675
384.559
461.574
454.623
366.626
318.884
305.449
302.668
300.48
301.361
309.025
348.804
444.62
431.985
335.158
304.891
300.491
300.12
300.088
300.308
303.325
327.442
420.524
418.431
326.552
303.356
300.406
300.172
300.15
300.072
300.084
300.324
301.407
303.909
305.534
301.067
300.836
300.4
300.128
300.055
300.063
300.05
300.035
300.054
300.13
300.245
300.302
300.039
300.034
300.024
300.019
300.024
300.04
300.033
300.02
300.012
300.008
300.006
300.005
300.003
300.004
300.006
300.011
300.017
300.028
300.025
300.01
300.006
300.003
300.002
300.002
300.002
300.003
300.004
300.008
300.013
300.024
300.017
300.006
300.003
300.002
300.001
300.001
300.002
300.002
300.003
300.004
300.007
300.022
300.021
300.007
300.004
300.003
300.002
300.002
300.002
300.003
300.004
300.006
300.01
300.029
300.038
300.014
300.008
300.005
300.004
300.003
300.003
300.003
300.005
300.008
300.013
300.032
300.042
300.016
300.01
300.006
300.004
300.004
300.005
300.005
300.007
300.012
300.019
300.052
300.063
300.023
300.014
300.009
300.006
300.006
300.007
300.008
300.01
300.016
300.027
300.074
300.086
300.032
300.019
300.012
300.009
300.008
300.006
300.006
300.008
300.012
300.02
300.053
300.063
300.024
300.015
300.009
300.007
300.006
300.005
300.005
300.008
300.013
300.023
300.058
300.029
300.011
300.006
300.003
300.002
300.002
300.001
300.001
300.002
300.003
300.005
300.016
300.01
300.003
300.002
300.001
300.001
300
300
300
300
300.001
300.002
300.005
300.002
300.001
300
300
300
300
300
300
300
300
300
300.001
300
300
300
300
300
300
300
300
300
300
300
300
300
300
300
300
300
300
300
300
300
300
300
300
300
300
300
300
300
300
300
300
300
300
300
300
300
300
300
300
300
300
300
300
300
300
300
300
300
300
300
300
300
300
300
300
300
300
300
300
300
300
300
300
300
300
300
300
300
300
300
300
300
300
300
300
300
300
300
300
300
300
300
300
300
300
300
300
300
300
300
300
300
300
300
300
300
300
300
300
300
300
300
300
300
300
300
300
300
300
300
300
300
300
300
300
300
300
300
300
300
300
300
300
300
300
300
300
300
300
300
300
300
300
300
300
300
300
300
300
300
300
300
300
300
300
300
300
300
300
300
300
300
300
300
300
300
300
300
300
300
300
300.019
300.016
300.008
300.002
300
300
300
300.01
300.047
300.121
300.193
300.222
300.752
300.665
300.419
300.174
300.047
300.003
300.018
300.072
300.288
300.776
301.321
301.541
302.193
301.878
301.032
300.34
300.088
300.055
300.072
300.138
300.982
308.773
348.41
443.485
449.688
454.417
455.577
452.323
451.918
378.607
378.12
378.033
369.336
358.853
314.325
320.165
326.086
332.779
335.672
315.985
312.868
307.96
304.869
302.575
300.463
301.368
303.324
306.421
308.428
304.423
303.576
301.712
300.491
300.119
300.381
300.921
302.091
303.728
304.427
307.779
306.877
305.024
303.937
302.483
308.24
310.97
311.446
313.58
314.5
331.729
332.177
331.904
331.904
326.893
376.199
382.543
383.036
375.393
372.83
449.131
451.082
458.202
459.562
457.241
451.231
363.217
318.604
304.621
301.122
300.176
300.175
300.422
302.25
312.233
351.133
443.122
431.437
337.421
305.986
300.698
300.181
300.156
300.139
300.252
300.302
300.987
306.951
338.825
430.367
435.164
342.679
307.986
301.148
300.331
300.266
300.233
300.28
300.875
306.459
338.329
431.568
425.463
332.362
304.843
300.723
300.332
300.286
300.313
300.37
300.897
305.881
335.788
428.741
418.868
327.53
303.685
300.455
300.177
300.152
300.067
300.081
300.292
303.107
325.71
416.581
426.574
438.901
449.845
457.27
461.063
391.432
379.461
361.143
343.719
331.807
304.283
307.684
315.595
328.118
338.954
318.118
311.469
304.07
301.147
300.433
300.117
300.455
302.142
306.843
310.665
304.359
303.209
301.305
300.34
300.087
300.053
300.129
300.39
300.783
300.984
300.249
300.207
300.116
300.051
300.034
300.048
300.039
300.023
300.017
300.018
300.022
300.024
300.004
300.005
300.008
300.013
300.02
300.032
300.026
300.017
300.01
300.006
300.004
300.003
300.002
300.002
300.003
300.004
300.008
300.024
300.03
300.009
300.005
300.003
300.002
300.002
300.002
300.002
300.003
300.005
300.009
300.032
300.031
300.01
300.006
300.003
300.002
300.002
300.003
300.003
300.004
300.008
300.014
300.04
300.029
300.01
300.006
300.004
300.003
300.002
300.003
300.003
300.005
300.007
300.012
300.036
300.042
300.014
300.008
300.005
300.004
300.003
300.004
300.004
300.006
300.01
300.016
300.047
300.055
300.019
300.011
300.007
300.005
300.005
300.006
300.006
300.008
300.013
300.022
300.063
300.07
300.025
300.015
300.01
300.007
300.006
300.007
300.008
300.011
300.017
300.027
300.077
300.084
300.03
300.018
300.012
300.009
300.008
300.009
300.01
300.014
300.022
300.037
300.098
300.11
300.043
300.025
300.015
300.011
300.01
300.008
300.008
300.011
300.017
300.029
300.072
300.07
300.029
300.016
300.009
300.006
300.005
300.002
300.003
300.004
300.008
300.014
300.034
300.02
300.007
300.003
300.002
300.001
300.001
300.001
300.001
300.001
300.002
300.005
300.013
300.006
300.002
300.001
300.001
300
300
300
300
300
300.001
300.001
300.002
300.001
300
300
300
300
300
300
300
300
300
300
300.001
300
300
300
300
300
300
300
300
300
300
300
300
300
300
300
300
300
300
300
300
300
300
300
300
300
300
300
300
300
300
300
300
300
300
300
300
300
300
300
300
300
300
300
300
300
300
300
300
300
300
300
300
300
300
300
300
300
300
300
300
300
300
300
300
300
300
300
300
300
300
300
300
300
300
300
300
300
300
300
300
300
300
300
300
300
300
300
300
300
300
300
300
300
300
300
300
300
300
300
300
300
300
300
300
300
300
300
300
300
300
300
300
300
300
300
300
300
300
300
300
300
300
300
300
300
300
300
300
300
300
300
300
300
300
300
300
300
300
300
300
300
300
300
300
300
300
300
300
300
300
300
300
300
300
300
300
300
300
300
300
300
300
300
300
300
300
300
300
300
300.001
300.004
300.011
300.021
300.025
300.259
300.229
300.149
300.064
300.016
300
300.004
300.069
300.243
300.545
300.812
300.916
301.813
301.604
301.01
300.405
300.106
300.021
300.067
300.144
300.506
301.338
302.222
302.589
302.889
302.562
301.646
300.739
300.286
300.134
300.646
303.878
311.23
331.455
379.131
458.007
462.28
461.477
455.685
447.11
445.74
366.499
369.243
380.304
388.853
389.529
339.545
338.886
333.208
328.788
327.346
312.452
312.666
313.121
315.666
315.71
305.936
306.509
305.983
306.685
306.985
304.443
303.949
302.435
301.473
300.972
303.397
303.051
303.21
304.26
304.601
307
307.112
307.614
311.113
314.034
327.476
322.125
315.29
312.9
312.21
326.852
328.613
335.754
346.429
353.869
400.879
393.905
381.571
369.299
367.173
447.582
448.534
457.125
463.244
466.026
464.525
397.664
351.641
326.109
313.095
303.415
302.664
310.015
320.832
343.544
388.298
460.362
451.854
367.169
323.189
307.013
302.022
300.381
300.479
301.714
306.078
321.511
365.385
451.019
441.67
349.641
311.343
301.913
300.419
300.311
300.279
300.305
300.882
306.297
336.769
428.289
429.205
338.921
307.372
301.252
300.53
300.5
300.412
300.502
301.469
308.768
343.163
433.329
442.322
351.666
311.395
301.919
300.572
300.435
300.373
300.473
301.391
308.777
345.14
437.478
430.322
337.245
306.417
301.171
300.584
300.494
300.564
300.693
301.525
308.114
342.254
434.782
445.9
354.366
312.394
302.417
300.908
300.649
300.347
300.464
301.42
308.934
345.968
439.869
427.575
333.439
305.07
300.643
300.203
300.163
300.069
300.09
300.348
301.222
302.728
303.513
309.281
315.809
337.689
387.611
458.331
455.697
379.079
327.923
310.712
306.432
302.289
304.311
316.306
363.841
450.957
442.4
347.419
308.658
301.299
300.511
300.13
300.508
304.966
335.121
431.367
421.615
328.681
303.696
300.354
300.086
300.105
300.558
305.445
336.566
432.984
443.512
346.969
308.296
300.95
300.19
300.877
302.787
314.039
359.016
450.746
455.176
372.48
321.483
306.418
303.084
306.671
311.631
331.299
380.551
455.08
455.657
383.75
337.172
315.779
308.794
303.784
303.203
301.652
300.501
300.12
300.073
300.056
300.056
300.14
300.389
300.739
300.9
300.606
300.504
300.272
300.103
300.051
300.06
300.051
300.033
300.036
300.064
300.103
300.118
300.013
300.014
300.015
300.019
300.028
300.044
300.043
300.024
300.014
300.008
300.005
300.004
300.005
300.006
300.009
300.016
300.026
300.041
300.031
300.016
300.009
300.005
300.003
300.003
300.003
300.004
300.006
300.011
300.018
300.03
300.04
300.019
300.01
300.005
300.003
300.003
300.004
300.005
300.008
300.014
300.026
300.054
300.038
300.012
300.006
300.004
300.003
300.002
300.002
300.003
300.004
300.007
300.012
300.039
300.047
300.015
300.008
300.005
300.003
300.003
300.003
300.004
300.005
300.009
300.018
300.048
300.055
300.02
300.01
300.006
300.004
300.004
300.004
300.005
300.007
300.011
300.021
300.061
300.047
300.016
300.01
300.006
300.004
300.004
300.005
300.005
300.007
300.011
300.018
300.051
300.055
300.019
300.012
300.008
300.006
300.005
300.006
300.006
300.009
300.013
300.021
300.058
300.061
300.022
300.014
300.009
300.007
300.006
300.007
300.008
300.01
300.015
300.024
300.063
300.089
300.033
300.02
300.013
300.01
300.009
300.009
300.01
300.014
300.021
300.035
300.094
300.122
300.049
300.027
300.017
300.012
300.011
300.008
300.009
300.012
300.019
300.033
300.082
300.084
300.036
300.02
300.011
300.008
300.007
300.003
300.003
300.005
300.009
300.017
300.041
300.024
300.008
300.004
300.002
300.002
300.001
300.001
300.001
300.002
300.003
300.006
300.016
300.007
300.003
300.002
300.001
300
300
300
300
300
300.001
300.001
300.002
300.001
300
300
300
300
300
300
300
300
300
300
300.001
300
300
300
300
300
300
300
300
300
300
300
300
300
300
300
300
300
300
300
300
300
300
300
300
300
300
300
300
300
300
300
300
300
300
300
300
300
300
300
300
300
300
300
300
300
300
300
300
300
300
300
300
300
300
300
300
300
300
300
300
300
300
300
300
300
300
300
300
300
300
300
300
300
300
300
300
300
300
300
300
300
300
300
300
300
300
300
300
300
300
300
300
300
300
300
300
300
300
300
300
300
300
300
300
300
300
300
300
300
300
300
300
300
300
300
300
300
300
300
300
300
300
300
300
300
300
300
300
300
300
300
300
300
300
300
300
300
300
300
300
300
300
300
300
300
300
300
300
300
300
300
300
300
300
300
300
300
300
300
300
300
300
300
300
300
300
300
300
300
300
300
300
300
300
300.001
300
300
300
300
300
300
300.001
300.005
300.014
300.025
300.029
300.285
300.253
300.169
300.077
300.021
300.001
300.005
300.094
300.302
300.632
300.911
301.007
302.049
301.829
301.22
300.549
300.161
300.03
300.057
300.265
300.711
301.412
301.988
302.19
303.197
302.894
302.067
301.335
301.019
300.821
300.826
301.19
301.674
302.466
303.188
303.449
304.502
304.5
304.291
305.299
307.627
309.508
313.139
309.524
306.613
305.315
305.416
305.609
306.757
306.435
306.068
308.022
312.478
333.606
321.946
314.321
312.18
312.703
326.506
324.625
327.581
337.39
351.409
380.777
367.37
357.027
354.018
358.29
410.1
405.933
409.138
417.346
425.583
476.055
473.537
469.92
468.484
470.304
482.467
481.525
481.043
481.744
482.46
444.402
442.951
441.304
442.518
445.009
404.772
401.946
400.738
403.004
405.745
372.412
365.621
362.711
363.899
367.103
336.169
333.929
334.227
339.156
349.233
317.981
312.287
310.87
312.702
314.775
315.25
313.727
311.428
311.405
314.428
322.764
331.479
368.659
386.638
410.689
443.733
481.669
480.259
440.8
409.994
389.526
374.027
334.401
322.851
351.427
371.888
399.806
436.627
479.175
469.601
411.39
369.093
342.192
325.708
308.502
307.125
324.903
340.951
367.803
410.788
469.679
459.84
386.68
341.782
319.525
309.286
302.483
302.7
309.317
319.442
341.751
387.028
460.201
451.57
366.487
322.247
306.526
302.054
300.795
300.565
300.633
302.146
311.905
350.942
442.455
442.879
351.93
312.701
302.653
301.025
300.991
300.816
300.833
301.659
308.178
340.237
429.924
434.28
344.8
309.718
301.888
300.757
300.621
300.655
300.841
302.424
312.64
353.793
443.509
439.155
347.715
310.066
301.872
300.729
300.559
300.779
300.925
301.722
307.782
340.285
432.715
436.853
345.366
309.769
302.281
301.169
300.931
301.09
301.538
303.464
314.463
357.461
447.383
454.433
369.121
320.317
305.218
302.115
301.364
300.782
301.265
303.88
318.171
366.857
453.829
446.969
355.439
312.56
302.18
300.616
300.412
300.185
300.247
300.927
306.891
340.129
435.274
439.779
345.162
308.418
301.176
300.287
300.204
300.071
300.134
300.566
301.641
302.84
303.246
306.684
312.712
329.524
370.088
446.099
445.025
368.456
326.666
310.345
305.536
302.925
306.241
321.133
367.241
447.764
448.289
361.164
314.878
302.884
300.952
300.229
301.128
309.295
350.001
443.942
436.209
340.462
306.489
300.688
300.114
300.313
302.059
312.266
353.289
445.866
451.886
365.956
319.972
304.979
301.282
302.285
306.791
323.64
371.401
453.237
448.675
369.249
324.691
308.049
303.621
305.546
310.358
324.926
363.218
441.364
440.55
361.878
325.076
311.209
306.134
303.466
303.18
302.01
300.834
300.252
300.087
300.09
300.114
300.333
300.718
301.075
301.242
300.915
300.802
300.481
300.191
300.069
300.071
300.061
300.048
300.089
300.217
300.385
300.457
300.107
300.097
300.064
300.037
300.033
300.053
300.053
300.025
300.015
300.01
300.008
300.008
300.007
300.008
300.012
300.02
300.033
300.053
300.084
300.038
300.02
300.011
300.006
300.005
300.005
300.006
300.01
300.018
300.032
300.062
300.059
300.031
300.016
300.009
300.005
300.004
300.003
300.004
300.006
300.01
300.019
300.041
300.056
300.025
300.014
300.008
300.005
300.005
300.006
300.007
300.01
300.018
300.032
300.073
300.068
300.033
300.018
300.01
300.006
300.005
300.003
300.003
300.005
300.008
300.014
300.046
300.055
300.017
300.009
300.006
300.004
300.003
300.003
300.004
300.006
300.009
300.017
300.054
300.062
300.019
300.01
300.006
300.004
300.004
300.005
300.005
300.007
300.012
300.021
300.071
300.066
300.022
300.012
300.007
300.005
300.004
300.005
300.006
300.008
300.013
300.023
300.071
300.075
300.025
300.015
300.009
300.007
300.006
300.007
300.007
300.01
300.016
300.028
300.08
300.085
300.031
300.018
300.012
300.008
300.007
300.009
300.01
300.013
300.021
300.035
300.09
300.064
300.025
300.015
300.01
300.008
300.007
300.008
300.008
300.011
300.016
300.025
300.065
300.097
300.036
300.022
300.014
300.011
300.01
300.012
300.013
300.018
300.03
300.054
300.132
300.092
300.037
300.021
300.013
300.01
300.009
300.008
300.009
300.014
300.024
300.045
300.099
300.047
300.021
300.011
300.006
300.004
300.003
300.002
300.002
300.003
300.005
300.01
300.029
300.019
300.008
300.004
300.002
300.001
300.001
300.001
300.001
300.001
300.002
300.004
300.009
300.003
300.002
300.001
300
300
300
300
300
300
300
300.001
300.001
300.001
300
300
300
300
300
300
300
300
300
300
300
300
300
300
300
300
300
300
300
300
300
300
300
300
300
300
300
300
300
300
300
300
300
300
300
300
300
300
300
300
300
300
300
300
300
300
300
300
300
300
300
300
300
300
300
300
300
300
300
300
300
300
300
300
300
300
300
300
300
300
300
300
300
300
300
300
300
300
300
300
300
300
300
300
300
300
300
300
300
300
300
300
300
300
300
300
300
300
300
300
300
300
300
300
300
300
300
300
300
300
300
300
300
300
300
300
300
300
300
300
300
300
300
300
300
300
300
300
300
300
300
300
300
300
300
300
300
300
300
300
300
300
300
300
300
300
300
300
300
300
300
300
300
300
300
300
300
300
300
300
300
300
300
300
300
300
300
300
300
300
300
300
300
300
300
300
300
300
300
300
300
300
300
300
300
300
300
300
300
300
300
300
300
300
300
300.001
300.001
300.031
300.027
300.017
300.007
300.002
300
300.001
300.026
300.087
300.182
300.263
300.295
301.045
300.961
300.693
300.354
300.119
300.006
300.007
300.142
300.392
300.723
300.971
301.055
302.222
302.068
301.559
300.875
300.367
300.066
300.074
300.455
300.993
301.639
302.099
302.258
303.668
303.438
302.77
301.956
301.344
300.794
309.383
307.527
305.912
305.445
305.845
306.146
307.378
306.883
305.971
305.681
306.343
307.487
318.366
313.055
312.336
315.738
320.71
322.966
334.997
333.375
329.721
326.456
324.87
325.109
328.054
325.3
325.524
329.145
334.109
336.3
343.959
341.788
335.749
330.182
327.825
338.797
342.18
348.874
356.681
361.596
383.787
377.721
367.932
359.33
354.189
380.181
387.25
397.131
407.498
414.171
448.819
444.115
436.619
428.89
422.516
473.943
476.493
479.283
481.862
483.532
482.493
446.109
409.811
378.854
355.965
350.94
372.456
403.064
441.292
480.873
477.955
432.832
391.456
361.587
343.184
336.645
352.759
380.749
424.313
474.937
472.061
417.185
373.278
347.668
334.188
343.457
351.791
370.518
410.241
468.381
465.855
406.317
370.326
356.468
352.177
337.737
335.303
345.747
353.97
371.102
408.692
467.127
465.895
405.017
366.211
349.469
341.625
328.045
326.79
370.994
385.662
405.768
437.708
479.204
479.6
437.453
399.659
370.685
349.676
317.57
316.397
348.685
369.803
399.255
437.558
479.692
469.979
411.406
368.314
341.456
325.492
307.387
307.865
324.971
340.587
367.237
410.454
469.626
460.164
386.986
341.726
319.542
309.581
303.343
301.325
302.504
306.992
322.788
367.071
451.813
452.393
368.432
324.1
308.061
303.436
302.269
301.615
301.652
303.501
314.071
353.674
443.714
430.96
342.013
309.302
302.25
301.27
301.242
300.874
301.072
302.436
310.926
346.791
435.498
444.744
356.123
314.15
303.095
301.2
300.926
300.791
301.047
302.493
311.612
350.488
440.863
435.21
343.747
309.534
302.482
301.395
301.14
301.435
301.823
303.328
311.854
348.826
439.004
448.829
360.794
317.085
304.981
302.469
301.692
302.197
303.364
307.133
323.045
371.604
455.049
447.526
364.69
320.941
306.872
303.371
302.258
301.406
302.104
304.967
318.445
362.756
447.129
446.797
361.192
316.621
303.685
301.266
300.819
300.431
300.656
302.325
312.932
355.162
444.497
444.68
356.154
313.622
302.551
300.752
300.531
300.25
300.347
301.521
310.38
350.949
444.415
451.554
366.209
321.95
306.701
302.21
300.593
300.544
301.125
301.601
302.506
303.5
303.721
305.98
310.458
322.971
359.156
440.636
441.344
360.943
323.895
310.454
305.823
304.866
310.312
327.789
371.196
450.599
456.742
380.231
333.386
313.059
305.561
305.801
314.2
335.299
382.209
458.149
453.665
371.051
326.123
308.785
302.961
309.178
319.85
342.841
388.575
460.851
462.003
391.099
344.574
321.071
310.155
307.379
315.571
336.214
382.257
457.951
448.67
368.384
327.148
311.148
305.643
305.791
310.087
322.356
358.716
440.89
442.145
358.972
321.919
309.876
305.823
303.853
303.744
303.029
302.324
302.326
302.222
300.595
300.741
300.994
301.383
301.807
301.997
301.614
301.457
301.084
300.653
300.342
300.181
300.117
300.157
300.34
300.63
300.896
301.015
300.761
300.685
300.459
300.217
300.09
300.085
300.069
300.06
300.128
300.287
300.457
300.517
300.25
300.217
300.129
300.063
300.045
300.058
300.049
300.031
300.032
300.052
300.08
300.09
300.009
300.008
300.008
300.011
300.018
300.047
300.07
300.023
300.013
300.007
300.005
300.004
300.005
300.006
300.009
300.016
300.029
300.078
300.105
300.039
300.021
300.012
300.007
300.006
300.007
300.009
300.014
300.026
300.051
300.117
300.083
300.042
300.023
300.013
300.008
300.007
300.006
300.008
300.012
300.023
300.043
300.083
300.108
300.054
300.029
300.016
300.01
300.008
300.009
300.011
300.018
300.033
300.063
300.132
300.09
300.038
300.021
300.012
300.008
300.007
300.007
300.008
300.012
300.022
300.041
300.085
300.103
300.047
300.025
300.014
300.009
300.008
300.004
300.005
300.007
300.011
300.02
300.066
300.081
300.025
300.014
300.008
300.006
300.005
300.007
300.007
300.011
300.017
300.031
300.098
300.082
300.024
300.014
300.008
300.006
300.005
300.006
300.007
300.01
300.016
300.028
300.094
300.109
300.033
300.019
300.012
300.008
300.007
300.009
300.01
300.014
300.023
300.039
300.125
300.143
300.046
300.027
300.016
300.012
300.01
300.012
300.014
300.019
300.031
300.053
300.162
300.097
300.039
300.023
300.015
300.011
300.009
300.011
300.012
300.016
300.026
300.043
300.104
300.065
300.026
300.016
300.011
300.009
300.008
300.01
300.011
300.014
300.022
300.037
300.099
300.141
300.058
300.032
300.019
300.014
300.012
300.01
300.011
300.014
300.023
300.04
300.101
300.116
300.053
300.028
300.015
300.01
300.009
300.004
300.005
300.007
300.014
300.025
300.054
300.034
300.013
300.006
300.003
300.002
300.002
300.001
300.002
300.003
300.005
300.01
300.023
300.01
300.005
300.003
300.001
300.001
300.001
300
300
300.001
300.001
300.002
300.003
300.002
300.001
300
300
300
300
300
300
300
300
300
300.001
300.001
300
300
300
300
300
300
300
300
300
300
300
300
300
300
300
300
300
300
300
300
300
300
300
300
300
300
300
300
300
300
300
300
300
300