/*--------------------------------*- C++ -*----------------------------------*\
| =========                 |                                                 |
| \\      /  F ield         | OpenFOAM: The Open Source CFD Toolbox           |
|  \\    /   O peration     | Version:  2212                                  |
|   \\  /    A nd           | Website:  www.openfoam.com                      |
|    \\/     M anipulation  |                                                 |
\*---------------------------------------------------------------------------*/
FoamFile
{
    version     2.0;
    format      ascii;
    arch        "LSB;label=32;scalar=64";
    class       volScalarField;
    location    "298";
    object      p;
}
// * * * * * * * * * * * * * * * * * * * * * * * * * * * * * * * * * * * * * //

dimensions      [0 2 -2 0 0 0 0];

internalField   nonuniform List<scalar> 
248319
(
0
0.0192795
0.0402689
0.0499107
0.0579504
0.0646531
0.0702468
0.109357
0.103291
0.0960181
0.0872958
0.0768367
0.0510477
0.0498362
0.076139
0.0872723
0.0965685
0.104326
0.110797
0.0812578
0.076388
0.0705996
0.0636716
0.0553458
0.0330936
0.0137191
0.0280063
0.034219
0.0395189
0.0440835
0.0480573
0.0626194
0.0577819
0.0519845
0.045046
0.0367377
0.019679
-0.0539526
-0.0471963
-0.0434518
-0.0403284
-0.037708
-0.0355322
-0.0212315
-0.0246992
-0.0288577
-0.0338354
-0.0398007
-0.0507615
-0.0555456
-0.0402186
-0.0334763
-0.0278612
-0.0231808
-0.0192642
0.0634671
0.0574276
0.0501791
0.0414882
0.0310668
0.000543731
0.0309078
0.0593113
0.0692838
0.0775981
0.0845259
0.090305
0.100137
0.0944898
0.0877147
0.0795878
0.0698443
0.0359031
0.0499504
0.0749735
0.0847365
0.0928737
0.0996576
0.105312
0.109528
0.103005
0.0951837
0.0858073
0.074568
0.047314
0.0190768
0.0397485
0.0463753
0.0519015
0.0565843
0.060633
-0.0356315
-0.0383618
-0.0410918
-0.0438198
-0.0465495
-0.0535717
-0.051504
-0.0438565
-0.0414683
-0.039228
-0.03709
-0.0350254
-0.140388
-0.140798
-0.141188
-0.141557
-0.141896
-0.14527
-0.14483
-0.141955
-0.140975
-0.140161
-0.13948
-0.138908
-0.132516
-0.133793
-0.135339
-0.137177
-0.139387
-0.144444
-0.145906
-0.139378
-0.136705
-0.134476
-0.132606
-0.131066
-0.133987
-0.135625
-0.137603
-0.139963
-0.142807
-0.150192
-0.0695801
-0.052578
-0.0457576
-0.040072
-0.0353388
-0.0313764
0.0473169
0.0406965
0.0327558
0.0232248
0.0117984
-0.0194629
-0.00915814
0.0315429
0.0452789
0.0567321
0.0662827
0.074245
0.0901754
0.0833702
0.0752095
0.0654181
0.0536753
0.0104147
0.00965757
0.0523169
0.0641546
0.0740214
0.0822446
0.0891008
0.0978813
0.0923002
0.0856032
0.0775663
0.0679242
0.034481
0.0489438
0.0735217
0.0833202
0.0914843
0.0982875
0.103955
0.109477
0.102782
0.0947551
0.0851324
0.0735959
0.0456366
0.0147861
0.0354121
0.0421974
0.0479103
0.0527919
0.0570383
-0.0392366
-0.0419525
-0.0446703
-0.0473884
-0.050109
-0.0586917
-0.147622
-0.143315
-0.142596
-0.141878
-0.141161
-0.140443
-0.139444
-0.140147
-0.140846
-0.141545
-0.142244
-0.146189
-0.244001
-0.242355
-0.242282
-0.242209
-0.242136
-0.242062
-0.24297
-0.242958
-0.242924
-0.242863
-0.242766
-0.243762
-0.2433
-0.242397
-0.242272
-0.242166
-0.242082
-0.242015
-0.23868
-0.239002
-0.239383
-0.239848
-0.240399
-0.242611
-0.242864
-0.239812
-0.239092
-0.238489
-0.23799
-0.237564
-0.238122
-0.23859
-0.239154
-0.239822
-0.240622
-0.244228
-0.245659
-0.241499
-0.240523
-0.239714
-0.23903
-0.238471
-0.136217
-0.138061
-0.140279
-0.142934
-0.146122
-0.154319
-0.077392
-0.0596764
-0.0525226
-0.0465571
-0.041592
-0.0374457
0.0342221
0.0274448
0.019311
0.00954679
-0.0021549
-0.0328412
-0.0252809
0.012636
0.0266672
0.0383659
0.0481192
0.0562467
0.0568256
0.048558
0.0386348
0.0267311
0.0124505
-0.0247292
-0.00912921
0.0306894
0.0447108
0.0563972
0.0661395
0.0742605
0.0739327
0.0657309
0.0558898
0.044084
0.0299146
-0.00975621
0.00872718
0.051414
0.0634136
0.0734109
0.0817434
0.0886882
0.0975788
0.0919193
0.0851301
0.0769815
0.0672051
0.0335578
0.0480743
0.0729875
0.0829159
0.091189
0.0980843
0.103828
0.109428
0.102622
0.0944593
0.0846738
0.0729411
0.0445358
0.013293
0.0340009
0.0409737
0.0468604
0.0519005
0.0562874
-0.040715
-0.0434382
-0.0461608
-0.0488836
-0.0516078
-0.0603935
-0.14868
-0.144124
-0.143449
-0.142773
-0.142098
-0.141423
-0.242707
-0.242783
-0.242859
-0.242936
-0.243013
-0.245102
-0.244485
-0.242463
-0.24239
-0.242318
-0.242246
-0.242173
-0.343419
-0.343417
-0.343415
-0.343414
-0.34341
-0.344191
-0.343959
-0.343394
-0.343416
-0.343437
-0.343459
-0.343479
-0.344216
-0.344164
-0.344099
-0.344022
-0.343926
-0.344014
-0.34369
-0.343598
-0.343653
-0.343704
-0.343744
-0.343779
-0.341959
-0.342006
-0.342059
-0.342127
-0.342208
-0.343034
-0.342987
-0.341731
-0.341602
-0.341489
-0.341401
-0.341334
-0.341474
-0.341556
-0.341666
-0.3418
-0.341951
-0.343476
-0.343953
-0.342135
-0.341948
-0.341783
-0.341652
-0.341539
-0.340746
-0.340941
-0.341157
-0.341428
-0.341747
-0.343998
-0.246045
-0.241077
-0.239699
-0.238554
-0.237591
-0.236805
-0.134503
-0.136821
-0.139609
-0.142949
-0.146951
-0.156211
-0.0818266
-0.0633051
-0.0553391
-0.0486955
-0.0431735
-0.0385514
0.0239822
0.0175034
0.00972632
0.000394663
-0.0107903
-0.0404993
-0.0341708
0.00128248
0.0135976
0.0238663
0.0324266
0.03956
0.0405685
0.0333971
0.0247918
0.0144678
0.0020834
-0.0330903
-0.0329077
0.00219498
0.0145666
0.0248781
0.0334732
0.0406343
0.0567265
0.048423
0.0384586
0.0265059
0.0121632
-0.024873
-0.0250425
0.0120503
0.0263934
0.0383452
0.0483059
0.0566052
0.0737378
0.0655247
0.0556686
0.0438392
0.0296473
-0.0101057
0.00827968
0.0511195
0.063156
0.0731812
0.0815399
0.088503
0.0974554
0.0917765
0.084965
0.0767892
0.0669751
0.0331508
0.0476907
0.0727862
0.0827564
0.0910627
0.0979855
0.103753
0.109385
0.102533
0.0943161
0.0844639
0.0726527
0.0440676
0.0127391
0.0335631
0.0406046
0.0465507
0.0516429
0.0560713
-0.0411967
-0.0439157
-0.0466338
-0.0493526
-0.052073
-0.0610001
-0.149286
-0.144722
-0.144043
-0.143362
-0.142682
-0.142003
-0.243166
-0.243242
-0.243319
-0.243396
-0.243473
-0.245551
-0.344842
-0.344016
-0.344015
-0.344015
-0.344015
-0.344015
-0.343698
-0.343698
-0.343698
-0.343698
-0.343699
-0.344534
-0.444312
-0.443985
-0.443985
-0.443985
-0.443985
-0.443984
-0.443825
-0.443824
-0.443823
-0.443822
-0.44382
-0.444107
-0.444016
-0.443861
-0.443875
-0.443889
-0.443903
-0.443916
-0.444474
-0.444444
-0.444405
-0.444358
-0.444303
-0.444154
-0.444015
-0.444153
-0.444212
-0.444266
-0.444312
-0.444346
-0.443411
-0.443411
-0.443405
-0.443399
-0.443394
-0.44365
-0.443727
-0.443281
-0.443277
-0.443263
-0.44326
-0.443244
-0.443601
-0.443623
-0.44362
-0.443641
-0.443657
-0.444168
-0.444735
-0.444194
-0.444159
-0.444144
-0.444133
-0.444111
-0.444403
-0.444428
-0.444464
-0.444499
-0.444555
-0.445178
-0.445384
-0.444563
-0.444448
-0.444345
-0.44427
-0.444206
-0.338873
-0.33924
-0.339661
-0.340175
-0.340789
-0.34368
-0.245836
-0.239648
-0.237467
-0.235648
-0.234121
-0.232862
-0.124302
-0.127555
-0.131469
-0.136163
-0.1418
-0.154694
-0.0825009
-0.0606246
-0.0513498
-0.0436147
-0.0371832
-0.0317974
0.0161812
0.00997778
0.00253586
-0.00639298
-0.0171027
-0.0445936
-0.0407037
-0.01151
-0.00120225
0.00739395
0.0145557
0.0205292
0.0212636
0.0153435
0.00824241
-0.000280423
-0.0105024
-0.0395424
-0.0393187
-0.0103352
-0.000135654
0.00836641
0.0154502
0.0213567
0.0213315
0.0154279
0.0083523
-0.000142783
-0.0103404
-0.039353
-0.0329618
0.00218541
0.0145468
0.0248492
0.0334319
0.0405845
0.0405351
0.0333833
0.0248035
0.014503
0.00214272
-0.0330576
-0.0251743
0.011978
0.0263197
0.0382709
0.0482291
0.0565264
0.0736401
0.0654245
0.0555658
0.0437334
0.0295384
-0.0102871
0.00808574
0.0510142
0.0630554
0.0730875
0.0814512
0.0884191
0.0974018
0.0917203
0.0849027
0.0767216
0.0669031
0.0330022
0.0475598
0.0727253
0.0827056
0.0910205
0.0979509
0.103724
0.109375
0.102507
0.0942709
0.084395
0.0725567
0.0439247
0.0125838
0.033514
0.0405955
0.0465756
0.0516937
0.0561393
-0.0413508
-0.0440792
-0.0468068
-0.0495343
-0.0522631
-0.0612171
-0.149544
-0.144989
-0.144307
-0.143625
-0.142943
-0.142259
-0.243436
-0.243513
-0.24359
-0.243666
-0.243744
-0.245803
-0.345058
-0.344255
-0.344254
-0.344254
-0.344254
-0.344254
-0.444421
-0.444421
-0.444421
-0.444422
-0.444422
-0.444725
-0.444534
-0.444214
-0.444213
-0.444213
-0.444213
-0.444213
-0.543784
-0.543784
-0.543784
-0.543784
-0.543784
-0.543921
-0.543732
-0.54359
-0.54359
-0.54359
-0.54359
-0.54359
-0.543471
-0.543471
-0.543472
-0.543471
-0.54347
-0.543592
-0.543558
-0.543511
-0.543518
-0.543525
-0.543531
-0.543538
-0.543921
-0.543905
-0.543886
-0.543861
-0.543832
-0.543698
-0.54371
-0.543854
-0.543894
-0.54392
-0.54394
-0.543972
-0.543633
-0.543617
-0.543627
-0.543613
-0.543606
-0.543649
-0.543962
-0.543872
-0.543866
-0.543882
-0.543863
-0.543871
-0.544609
-0.5446
-0.54462
-0.54461
-0.544615
-0.544649
-0.545648
-0.545728
-0.545728
-0.545731
-0.54572
-0.545724
-0.54706
-0.547065
-0.54707
-0.547071
-0.547077
-0.546856
-0.548123
-0.548462
-0.548436
-0.548431
-0.548411
-0.548401
-0.5493
-0.549324
-0.549364
-0.549398
-0.549448
-0.549081
-0.445329
-0.444132
-0.443859
-0.443633
-0.443448
-0.443291
-0.336063
-0.336721
-0.337492
-0.338427
-0.339552
-0.34331
-0.246658
-0.238962
-0.235648
-0.232881
-0.230567
-0.228646
-0.121755
-0.125794
-0.130659
-0.136496
-0.143499
-0.159715
-0.109584
-0.0815091
-0.0711928
-0.0625873
-0.0554153
-0.0494329
-0.0145008
-0.0204227
-0.0275158
-0.0360323
-0.0462448
-0.0736389
-0.0681668
-0.0358169
-0.025766
-0.0173885
-0.0104002
-0.00457176
-0.00459623
-0.0104147
-0.0173886
-0.025756
-0.035801
-0.0676266
-0.0675437
-0.0358197
-0.0257742
-0.0174037
-0.0104281
-0.00461343
-0.00466094
-0.0104738
-0.0174515
-0.0258186
-0.0358623
-0.0676126
-0.0677038
-0.0359191
-0.0258698
-0.0174971
-0.0105195
-0.00470376
0.0212934
0.01539
0.00831209
-0.000185174
-0.010385
-0.039432
-0.0394948
-0.0104248
-0.000223948
0.00827752
0.0153604
0.0212635
0.0405051
0.0333508
0.0247668
0.0144657
0.00210378
-0.0331262
-0.0252492
0.0119378
0.026278
0.0382284
0.0481872
0.0564864
0.0735941
0.0653786
0.0555201
0.0436898
0.0294961
-0.0103675
0.00801636
0.0509786
0.0630188
0.0730523
0.0814163
0.0883839
0.0973828
0.0917001
0.0848813
0.0767006
0.0668863
0.0329641
0.0475308
0.0727125
0.0826923
0.0910082
0.0979388
0.103714
0.109368
0.102499
0.0942591
0.0843794
0.0725385
0.0438958
0.0125528
0.0335074
0.040593
0.0465752
0.0516963
0.0561432
-0.0413785
-0.0441097
-0.0468383
-0.0495666
-0.0522973
-0.0612582
-0.149626
-0.145078
-0.144396
-0.143713
-0.143032
-0.142349
-0.243564
-0.243641
-0.243717
-0.243794
-0.243872
-0.245915
-0.345188
-0.344399
-0.344398
-0.344398
-0.344398
-0.344398
-0.444588
-0.444588
-0.444588
-0.444588
-0.444589
-0.444878
-0.544338
-0.544233
-0.544232
-0.544232
-0.544232
-0.544232
-0.544003
-0.544003
-0.544003
-0.544003
-0.544004
-0.544124
-0.643234
-0.643194
-0.643194
-0.643194
-0.643193
-0.643193
-0.642897
-0.642897
-0.642897
-0.642898
-0.642898
-0.642957
-0.64275
-0.64268
-0.64268
-0.64268
-0.64268
-0.64268
-0.642555
-0.642555
-0.642555
-0.642555
-0.642556
-0.64262
-0.642596
-0.642568
-0.64257
-0.642571
-0.642573
-0.642577
-0.642818
-0.64281
-0.642803
-0.642795
-0.642783
-0.642707
-0.642814
-0.642913
-0.642923
-0.642936
-0.642956
-0.642956
-0.643
-0.643008
-0.642997
-0.642999
-0.642997
-0.642968
-0.643484
-0.643538
-0.643544
-0.64354
-0.64354
-0.64354
-0.644611
-0.644616
-0.644607
-0.644618
-0.644609
-0.644432
-0.645873
-0.646258
-0.646262
-0.64625
-0.646259
-0.646255
-0.648476
-0.648478
-0.648483
-0.648486
-0.648483
-0.647831
-0.650208
-0.651155
-0.651159
-0.651154
-0.651146
-0.65115
-0.65365
-0.653651
-0.653659
-0.653663
-0.653667
-0.652509
-0.653222
-0.654538
-0.654512
-0.654504
-0.654482
-0.654478
-0.548948
-0.549021
-0.549101
-0.549193
-0.549307
-0.549077
-0.445053
-0.443214
-0.442645
-0.442168
-0.441772
-0.441448
-0.332407
-0.33356
-0.334911
-0.336548
-0.338514
-0.343575
-0.247299
-0.235378
-0.230338
-0.226135
-0.222616
-0.21971
-0.125698
-0.130356
-0.135941
-0.142642
-0.150679
-0.170145
-0.126773
-0.0995857
-0.0890799
-0.0803205
-0.0730184
-0.0669326
-0.0553545
-0.061922
-0.0698108
-0.0792683
-0.0906166
-0.1211
-0.102534
-0.0664827
-0.0549407
-0.045316
-0.0372948
-0.0306052
-0.0307569
-0.0374095
-0.0453922
-0.0549683
-0.0664579
-0.101792
-0.101678
-0.0665603
-0.0550706
-0.0454925
-0.0375092
-0.0308576
-0.0309339
-0.0375865
-0.045571
-0.055149
-0.0666425
-0.101732
-0.101822
-0.0667042
-0.0552058
-0.0456276
-0.0376402
-0.0309853
-0.0310176
-0.0376724
-0.0456621
-0.0552453
-0.0667485
-0.101891
-0.0677704
-0.0359619
-0.0259077
-0.01753
-0.0105503
-0.00473138
-0.00474467
-0.0105669
-0.0175488
-0.0259317
-0.0359858
-0.0678115
-0.0395323
-0.0104476
-0.000244297
0.00825519
0.0153428
0.0212453
0.0404885
0.0333322
0.024747
0.014444
0.0020794
-0.0331677
-0.0252876
0.0119163
0.0262582
0.0382094
0.04817
0.0564671
0.0735771
0.0653621
0.0555037
0.0436736
0.0294804
-0.0103975
0.0079997
0.0509704
0.0630086
0.0730418
0.0814055
0.0883709
0.0973772
0.0916943
0.0848782
0.076699
0.066884
0.0329634
0.0475339
0.0727106
0.0826913
0.0910079
0.0979367
0.103711
0.109368
0.102498
0.094258
0.084378
0.0725366
0.0439069
0.0125757
0.0335416
0.0406334
0.0466191
0.0517415
0.0561903
-0.0413642
-0.0440935
-0.0468216
-0.0495522
-0.0522835
-0.0612443
-0.149636
-0.145096
-0.144413
-0.143729
-0.143046
-0.142364
-0.243612
-0.243688
-0.243766
-0.243844
-0.243921
-0.245954
-0.345263
-0.344483
-0.344483
-0.344482
-0.344482
-0.344482
-0.444728
-0.444728
-0.444728
-0.444728
-0.444729
-0.445006
-0.54457
-0.544482
-0.544482
-0.544481
-0.544481
-0.544481
-0.644063
-0.644063
-0.644063
-0.644063
-0.644064
-0.644038
-0.643593
-0.643582
-0.643582
-0.643581
-0.643581
-0.643581
-0.742911
-0.742911
-0.742911
-0.742912
-0.742912
-0.742839
-0.742199
-0.742219
-0.742219
-0.742218
-0.742218
-0.742218
-0.741738
-0.741738
-0.741738
-0.741739
-0.741739
-0.741755
-0.741468
-0.741433
-0.741432
-0.741432
-0.741432
-0.741432
-0.741262
-0.741262
-0.741263
-0.741263
-0.741264
-0.741305
-0.741259
-0.741228
-0.741228
-0.741227
-0.741229
-0.741229
-0.741343
-0.741342
-0.741341
-0.741342
-0.741341
-0.741325
-0.741468
-0.741512
-0.741514
-0.741517
-0.74152
-0.741522
-0.741797
-0.741797
-0.741797
-0.741796
-0.741796
-0.741745
-0.742375
-0.742497
-0.742494
-0.742489
-0.742498
-0.742493
-0.743749
-0.743743
-0.743743
-0.74374
-0.74375
-0.743473
-0.745178
-0.745693
-0.745686
-0.745697
-0.745689
-0.745695
-0.748461
-0.74846
-0.748464
-0.748456
-0.748459
-0.747609
-0.750738
-0.752019
-0.752016
-0.752016
-0.752017
-0.752017
-0.75582
-0.755833
-0.755817
-0.755829
-0.755827
-0.754145
-0.757011
-0.758304
-0.758305
-0.758291
-0.758305
-0.75829
-0.75235
-0.752355
-0.752354
-0.752371
-0.752372
-0.750913
-0.650125
-0.651437
-0.65138
-0.651347
-0.651303
-0.651286
-0.546529
-0.546703
-0.546882
-0.5471
-0.547373
-0.547566
-0.444598
-0.441798
-0.440723
-0.439826
-0.439075
-0.438462
-0.328989
-0.330797
-0.332954
-0.335554
-0.338664
-0.345481
-0.255372
-0.239727
-0.233216
-0.227787
-0.223256
-0.219487
-0.140954
-0.146836
-0.153879
-0.162341
-0.172477
-0.201282
-0.161025
-0.133944
-0.123851
-0.115433
-0.108412
-0.102553
-0.0845225
-0.0909512
-0.0986597
-0.107906
-0.118992
-0.153273
-0.152025
-0.118419
-0.107523
-0.0984371
-0.0908657
-0.0845534
-0.0556978
-0.0621138
-0.0698208
-0.0790634
-0.0901529
-0.119898
-0.119716
-0.0901913
-0.0791299
-0.0699107
-0.0622281
-0.0558269
-0.0559226
-0.0623223
-0.0700006
-0.0792172
-0.0902736
-0.119778
-0.119868
-0.0903442
-0.0792846
-0.0700657
-0.0623827
-0.0559834
-0.0560182
-0.0624197
-0.0701054
-0.0793292
-0.0903939
-0.119936
-0.119977
-0.0904208
-0.0793549
-0.0701268
-0.0624409
-0.0560342
-0.0310336
-0.0376882
-0.0456802
-0.0552661
-0.0667741
-0.101935
-0.101958
-0.0667835
-0.055275
-0.0456891
-0.0376972
-0.0310372
-0.00475429
-0.0105723
-0.0175572
-0.0259402
-0.0359965
-0.067835
-0.0395526
-0.0104581
-0.000252788
0.00824894
0.0153343
0.0212399
0.0404809
0.0333259
0.0247373
0.0144336
0.00206771
-0.0331908
-0.0253078
0.0119068
0.0262497
0.0382001
0.0481613
0.0564605
0.0735728
0.0653576
0.0554976
0.0436715
0.0294772
-0.0104081
0.00799891
0.0509719
0.0630099
0.0730404
0.0814023
0.0883694
0.097376
0.0916951
0.0848809
0.0767028
0.0668881
0.0329714
0.0475405
0.0727134
0.0826942
0.0910095
0.0979388
0.103712
0.109367
0.102496
0.094258
0.0843794
0.0725381
0.0439131
0.0125886
0.0335503
0.0406409
0.0466277
0.0517473
0.0561939
-0.0413416
-0.0440707
-0.0467997
-0.0495303
-0.0522629
-0.061221
-0.149624
-0.145087
-0.144404
-0.14372
-0.143035
-0.142353
-0.243629
-0.243705
-0.243784
-0.243862
-0.243939
-0.245968
-0.345314
-0.344539
-0.344538
-0.344538
-0.344538
-0.344538
-0.444849
-0.44485
-0.44485
-0.44485
-0.44485
-0.44512
-0.544812
-0.544747
-0.544747
-0.544746
-0.544746
-0.544746
-0.644615
-0.644615
-0.644615
-0.644615
-0.644616
-0.64454
-0.744696
-0.74496
-0.744959
-0.744959
-0.744959
-0.744958
-0.743843
-0.743844
-0.743844
-0.743844
-0.743845
-0.743689
-0.843858
-0.844211
-0.84421
-0.844209
-0.844208
-0.844208
-0.842474
-0.842474
-0.842475
-0.842475
-0.842476
-0.842291
-0.841171
-0.841251
-0.84125
-0.841249
-0.841249
-0.841249
-0.840462
-0.840462
-0.840462
-0.840462
-0.840463
-0.840444
-0.840009
-0.839998
-0.839997
-0.839997
-0.839997
-0.839997
-0.839744
-0.839744
-0.839745
-0.839745
-0.839746
-0.839773
-0.839684
-0.839649
-0.839648
-0.839647
-0.839645
-0.839644
-0.839665
-0.839669
-0.839673
-0.839677
-0.839682
-0.839699
-0.83984
-0.839847
-0.839847
-0.839841
-0.839838
-0.839836
-0.840195
-0.8402
-0.840191
-0.840196
-0.840197
-0.84015
-0.84078
-0.840912
-0.840905
-0.840909
-0.840914
-0.840909
-0.842139
-0.842139
-0.842148
-0.842136
-0.842143
-0.841858
-0.843553
-0.844075
-0.844075
-0.844075
-0.844076
-0.844071
-0.846898
-0.846913
-0.846899
-0.846906
-0.846908
-0.846027
-0.84928
-0.85068
-0.85067
-0.850672
-0.85068
-0.850673
-0.854987
-0.854977
-0.854983
-0.854974
-0.854985
-0.85284
-0.856031
-0.858666
-0.858662
-0.858661
-0.85866
-0.858663
-0.859248
-0.859253
-0.859249
-0.859253
-0.859249
-0.858022
-0.901211
-0.901622
-0.90161
-0.901601
-0.90159
-0.901583
-0.925086
-0.933767
-0.941004
-0.947038
-0.952067
-0.952064
-0.947037
-0.941007
-0.933775
-0.925098
-0.925109
-0.933785
-0.941019
-0.947042
-0.952057
-0.952058
-0.947036
-0.941017
-0.93379
-0.925127
-0.925142
-0.933801
-0.941025
-0.947031
-0.952048
-0.952203
-0.94704
-0.940849
-0.933416
-0.924497
-0.925713
-0.934416
-0.941673
-0.947713
-0.95275
-0.909921
-0.903487
-0.895766
-0.8865
-0.875378
-0.848792
-0.805062
-0.838024
-0.85159
-0.862896
-0.872317
-0.880165
-0.88001
-0.871996
-0.862373
-0.850828
-0.836972
-0.837517
-0.851187
-0.862577
-0.87207
-0.879977
-0.879992
-0.872082
-0.862586
-0.85119
-0.837514
-0.837515
-0.851197
-0.862593
-0.87209
-0.880005
-0.880023
-0.872102
-0.8626
-0.851196
-0.837515
-0.837512
-0.851197
-0.862603
-0.872108
-0.880026
-0.865294
-0.856804
-0.846617
-0.83439
-0.819717
-0.819718
-0.834387
-0.846611
-0.856799
-0.865286
-0.865277
-0.85679
-0.846606
-0.834383
-0.819718
-0.819714
-0.834379
-0.846598
-0.856778
-0.865263
-0.865247
-0.856767
-0.846589
-0.834373
-0.819714
-0.818232
-0.833323
-0.845899
-0.856376
-0.865103
-0.865057
-0.856225
-0.845624
-0.8329
-0.81763
-0.782401
-0.782335
-0.782407
-0.782392
-0.782373
-0.782355
-0.782351
-0.718828
-0.718886
-0.718932
-0.719001
-0.719078
-0.717985
-0.636449
-0.636849
-0.636473
-0.636174
-0.635904
-0.635697
-0.536312
-0.537025
-0.537855
-0.538879
-0.540087
-0.542426
-0.446161
-0.439735
-0.436576
-0.433951
-0.431745
-0.42992
-0.321619
-0.325325
-0.329757
-0.335085
-0.341469
-0.356623
-0.302159
-0.27399
-0.264388
-0.256387
-0.249712
-0.24415
-0.204071
-0.209652
-0.216362
-0.224404
-0.234041
-0.260244
-0.222132
-0.195116
-0.185131
-0.176802
-0.169862
-0.164074
-0.150268
-0.15653
-0.164037
-0.173043
-0.183848
-0.214786
-0.191914
-0.153455
-0.141733
-0.131961
-0.123814
-0.117024
-0.116779
-0.123467
-0.131483
-0.141104
-0.152648
-0.190284
-0.189912
-0.152596
-0.141087
-0.131494
-0.123505
-0.116839
-0.084674
-0.0909723
-0.0985333
-0.107606
-0.118488
-0.151843
-0.151889
-0.11857
-0.107692
-0.0986262
-0.0910703
-0.0847787
-0.0848442
-0.091139
-0.0986973
-0.107766
-0.118652
-0.151985
-0.152059
-0.118704
-0.107814
-0.0987425
-0.0911817
-0.0848849
-0.084903
-0.0912025
-0.098769
-0.10784
-0.118735
-0.152104
-0.152132
-0.118751
-0.107856
-0.098782
-0.0912135
-0.0849104
-0.0560412
-0.0624506
-0.0701388
-0.0793669
-0.0904348
-0.120001
-0.120012
-0.0904402
-0.0793686
-0.0701419
-0.0624513
-0.056042
-0.031038
-0.037698
-0.04569
-0.0552804
-0.066787
-0.101968
-0.0678421
-0.0360002
-0.0259415
-0.0175611
-0.0105736
-0.00475564
0.0212376
0.015332
0.00824659
-0.000257213
-0.0104611
-0.0395607
-0.0332014
0.00206308
0.0144292
0.024733
0.0333236
0.0404792
0.0564614
0.0481582
0.0381973
0.0262486
0.0119055
-0.0253153
-0.0104093
0.0294809
0.0436752
0.0555006
0.0653565
0.0735717
0.0883679
0.0814033
0.073044
0.0630135
0.0509762
0.00800316
0.0329786
0.0668934
0.0767045
0.0848819
0.0916969
0.0973749
0.103713
0.0979384
0.0910081
0.0826951
0.0727179
0.0475474
0.0439218
0.0725423
0.0843814
0.0942575
0.102495
0.109365
0.0562056
0.0517594
0.0466392
0.040653
0.0335631
0.0126034
-0.0612026
-0.0522463
-0.0495146
-0.0467854
-0.0440539
-0.0413238
-0.142342
-0.143025
-0.143708
-0.144391
-0.145075
-0.149612
-0.245974
-0.243945
-0.243867
-0.243789
-0.243712
-0.243635
-0.344577
-0.344577
-0.344578
-0.344578
-0.344578
-0.34535
-0.445221
-0.444959
-0.444959
-0.444959
-0.444959
-0.444958
-0.545001
-0.545001
-0.545001
-0.545001
-0.545002
-0.545045
-0.645043
-0.645172
-0.645171
-0.645171
-0.645171
-0.645171
-0.746121
-0.746121
-0.746122
-0.746122
-0.746123
-0.745737
-0.847858
-0.848726
-0.848725
-0.848724
-0.848723
-0.848723
-0.846383
-0.846383
-0.846384
-0.846385
-0.846386
-0.845796
-0.948338
-0.949512
-0.949511
-0.949511
-0.94951
-0.94951
-0.945482
-0.945482
-0.945482
-0.945483
-0.945484
-0.944805
-0.942086
-0.942437
-0.942436
-0.942435
-0.942435
-0.942435
-0.9404
-0.940401
-0.940401
-0.940402
-0.940402
-0.940242
-0.939106
-0.939163
-0.939162
-0.939162
-0.939161
-0.939161
-0.938464
-0.938464
-0.938465
-0.938465
-0.938465
-0.938458
-0.938118
-0.938101
-0.9381
-0.9381
-0.938099
-0.938099
-0.937928
-0.937932
-0.937934
-0.937934
-0.937937
-0.937968
-0.937931
-0.9379
-0.937893
-0.937888
-0.937882
-0.937877
-0.938006
-0.938009
-0.938013
-0.938018
-0.938029
-0.938037
-0.938307
-0.938342
-0.938336
-0.938336
-0.938336
-0.938336
-0.938936
-0.938936
-0.938936
-0.938939
-0.938936
-0.938832
-0.939723
-0.939948
-0.939957
-0.939946
-0.939955
-0.93995
-0.941562
-0.941556
-0.941556
-0.94156
-0.94156
-0.941136
-0.943232
-0.943957
-0.943957
-0.943958
-0.943945
-0.943961
-0.947226
-0.947222
-0.947232
-0.947234
-0.947225
-0.946012
-0.949084
-0.951233
-0.951238
-0.95124
-0.95123
-0.951233
-0.955674
-0.95566
-0.955673
-0.955669
-0.955667
-0.951619
-0.967708
-0.985623
-0.991762
-0.996878
-1.00114
-1.00469
-1.00413
-1.00412
-1.00413
-1.00413
-1.00413
-1.00062
-1.00063
-1.00063
-1.00063
-1.00064
-0.996444
-0.996438
-0.996429
-0.996424
-0.996414
-0.991363
-0.991375
-0.991386
-0.991406
-0.991423
-0.985387
-0.985358
-0.985335
-0.985321
-0.9853
-0.969915
-0.969918
-0.969937
-0.96995
-0.969964
-1.05312
-1.0531
-1.05308
-1.05308
-1.05306
-1.05706
-1.05708
-1.0571
-1.05712
-1.05716
-1.0596
-1.05958
-1.05957
-1.05955
-1.05954
-1.0616
-1.0616
-1.06162
-1.06163
-1.06164
-1.06334
-1.06334
-1.06333
-1.06332
-1.06332
-1.06475
-1.06475
-1.06475
-1.06476
-1.06476
-1.06522
-1.06376
-1.062
-1.05989
-1.05735
-1.05279
-1.05253
-1.05794
-1.06052
-1.06267
-1.06445
-1.06594
-1.00579
-1.00231
-0.998133
-0.99312
-0.987101
-0.965404
-0.902019
-0.904933
-0.929506
-0.937264
-0.943732
-0.949118
-0.9536
-0.910398
-0.904629
-0.897707
-0.889403
-0.879438
-0.851447
-0.807343
-0.841162
-0.853825
-0.86438
-0.87317
-0.880499
-0.86527
-0.856754
-0.846534
-0.83427
-0.819549
-0.784412
-0.783327
-0.818588
-0.833625
-0.846155
-0.856596
-0.865291
-0.865123
-0.85611
-0.84529
-0.832303
-0.816717
-0.781273
-0.780833
-0.817157
-0.832626
-0.845515
-0.856251
-0.865198
-0.86534
-0.865353
-0.865364
-0.865369
-0.865375
-0.856626
-0.856622
-0.856617
-0.856611
-0.856602
-0.846117
-0.84612
-0.846122
-0.846122
-0.846124
-0.833519
-0.833521
-0.833526
-0.833528
-0.83353
-0.818429
-0.818419
-0.818412
-0.818401
-0.818394
-0.780359
-0.780388
-0.780424
-0.780477
-0.780528
-0.716453
-0.716182
-0.715953
-0.715766
-0.715603
-0.630724
-0.631253
-0.631895
-0.632645
-0.633565
-0.63442
-0.54165
-0.537039
-0.534652
-0.532655
-0.531008
-0.52961
-0.420803
-0.423731
-0.427267
-0.43151
-0.436585
-0.447954
-0.370544
-0.35205
-0.344551
-0.338306
-0.333092
-0.328742
-0.270592
-0.275934
-0.282344
-0.290031
-0.299255
-0.325123
-0.317661
-0.287999
-0.278398
-0.270392
-0.26372
-0.258159
-0.220274
-0.22655
-0.234082
-0.243117
-0.253952
-0.292169
-0.251772
-0.218287
-0.207725
-0.198915
-0.191567
-0.185444
-0.184869
-0.190845
-0.198009
-0.206608
-0.216918
-0.249829
-0.212894
-0.182755
-0.172259
-0.163515
-0.15622
-0.150144
-0.150115
-0.15616
-0.163408
-0.172101
-0.182539
-0.212398
-0.212338
-0.182541
-0.17212
-0.163437
-0.156202
-0.150165
-0.116925
-0.12358
-0.131566
-0.141148
-0.152649
-0.189887
-0.189963
-0.152716
-0.141215
-0.13163
-0.123645
-0.116987
-0.117027
-0.123689
-0.131676
-0.141265
-0.152767
-0.190033
-0.190082
-0.1528
-0.141295
-0.131703
-0.123711
-0.117052
-0.117062
-0.123722
-0.131717
-0.141308
-0.152818
-0.190111
-0.190124
-0.152826
-0.141314
-0.13172
-0.123724
-0.117065
-0.0849118
-0.0912152
-0.0987833
-0.107862
-0.118755
-0.152143
-0.152149
-0.118756
-0.107861
-0.0987791
-0.0912134
-0.0849083
-0.0560372
-0.0624467
-0.0701395
-0.0793669
-0.0904406
-0.120015
-0.101972
-0.066787
-0.05528
-0.0456873
-0.0376926
-0.0310358
-0.00475073
-0.0105758
-0.0175597
-0.0259428
-0.0360017
-0.0678459
-0.0395638
-0.0104611
-0.000256364
0.00824531
0.0153355
0.0212379
0.0404812
0.0333235
0.0247342
0.0144308
0.00206302
-0.0332047
-0.0253165
0.011906
0.0262498
0.0381995
0.0481585
0.0564632
0.073571
0.0653577
0.0555044
0.0436771
0.0294841
-0.0104087
0.00800527
0.0509802
0.0630157
0.0730475
0.0814046
0.0883689
0.0973744
0.0916974
0.0848815
0.0767051
0.0668955
0.032984
0.0475538
0.0727191
0.0826952
0.0910094
0.0979382
0.103712
0.109364
0.102495
0.0942583
0.0843822
0.0725432
0.0439262
0.0126096
0.0335639
0.0406538
0.0466397
0.0517594
0.0562064
-0.0413159
-0.0440446
-0.0467752
-0.0495057
-0.0522361
-0.0611905
-0.149606
-0.145069
-0.144384
-0.1437
-0.143018
-0.142334
-0.24364
-0.243717
-0.243793
-0.243871
-0.24395
-0.245978
-0.345378
-0.344609
-0.344609
-0.344609
-0.344609
-0.344608
-0.445049
-0.445049
-0.445049
-0.445049
-0.445049
-0.445302
-0.545237
-0.545212
-0.545211
-0.545211
-0.545211
-0.545211
-0.64564
-0.645641
-0.645641
-0.645641
-0.645642
-0.645467
-0.746628
-0.747126
-0.747125
-0.747124
-0.747123
-0.747123
-0.850787
-0.850787
-0.850788
-0.850789
-0.850791
-0.849655
-0.956313
-0.957487
-0.95751
-0.957533
-0.957556
-0.957581
-0.953906
-0.953907
-0.953907
-0.953908
-0.953909
-0.952411
-1.06161
-1.06197
-1.06203
-1.0621
-1.06217
-1.06223
-1.0545
-1.0545
-1.0545
-1.0545
-1.0545
-1.0533
-1.04651
-1.04767
-1.04767
-1.04767
-1.04767
-1.04767
-1.04275
-1.04275
-1.04275
-1.04275
-1.04275
-1.04218
-1.03939
-1.03965
-1.03965
-1.03965
-1.03965
-1.03965
-1.03785
-1.03785
-1.03785
-1.03785
-1.03785
-1.03775
-1.03686
-1.03688
-1.03688
-1.03688
-1.03688
-1.03688
-1.03638
-1.03638
-1.03638
-1.03638
-1.03638
-1.03639
-1.03618
-1.03615
-1.03615
-1.03615
-1.03615
-1.03615
-1.03604
-1.03605
-1.03605
-1.03605
-1.03606
-1.03609
-1.03614
-1.03612
-1.03611
-1.03611
-1.0361
-1.0361
-1.03632
-1.03632
-1.03632
-1.03633
-1.03632
-1.03631
-1.03665
-1.03671
-1.03671
-1.03671
-1.03671
-1.03671
-1.03737
-1.03737
-1.03738
-1.03737
-1.03737
-1.03723
-1.03818
-1.03842
-1.03842
-1.03842
-1.03843
-1.03842
-1.04001
-1.04002
-1.04001
-1.04001
-1.04001
-1.0396
-1.04154
-1.04221
-1.04221
-1.0422
-1.04221
-1.0422
-1.04499
-1.045
-1.04499
-1.045
-1.04499
-1.04386
-1.04725
-1.04855
-1.04855
-1.04854
-1.04856
-1.04854
-1.1371
-1.13709
-1.1371
-1.1371
-1.1371
-1.13814
-1.13581
-1.13338
-1.13229
-1.13137
-1.13061
-1.12998
-1.12967
-1.12966
-1.12967
-1.12965
-1.12966
-1.13026
-1.13026
-1.13027
-1.13027
-1.13029
-1.13102
-1.131
-1.131
-1.13098
-1.13098
-1.13185
-1.13185
-1.13187
-1.13189
-1.13191
-1.13297
-1.13295
-1.13292
-1.1329
-1.13289
-1.13499
-1.135
-1.13501
-1.13503
-1.13504
-1.22021
-1.22019
-1.22018
-1.22017
-1.22015
-1.20677
-1.20678
-1.20681
-1.20682
-1.20686
-1.20244
-1.20242
-1.2024
-1.20239
-1.20238
-1.19871
-1.19873
-1.19873
-1.19874
-1.19876
-1.19569
-1.19568
-1.19568
-1.19567
-1.19567
-1.19312
-1.19312
-1.19312
-1.19313
-1.19314
-1.19342
-1.19601
-1.19911
-1.20283
-1.2073
-1.2226
-1.22532
-1.20717
-1.20285
-1.19924
-1.19624
-1.19373
-1.13055
-1.1312
-1.13197
-1.1329
-1.13401
-1.13692
-1.13747
-1.13426
-1.13319
-1.13229
-1.13154
-1.13092
-1.06643
-1.06501
-1.06329
-1.06122
-1.05875
-1.05292
-0.965358
-0.98922
-0.994833
-0.999505
-1.0034
-1.00664
-1.0071
-1.00396
-1.00018
-0.995652
-0.990215
-0.967181
-0.907518
-0.931586
-0.938867
-0.944935
-0.949991
-0.954198
-0.9106
-0.90515
-0.898611
-0.890762
-0.881348
-0.852505
-0.807836
-0.842671
-0.854922
-0.86513
-0.873637
-0.880727
-0.865382
-0.857036
-0.847017
-0.834995
-0.820569
-0.785363
-0.784275
-0.81962
-0.834354
-0.84663
-0.85686
-0.865382
-0.880725
-0.87329
-0.864375
-0.85367
-0.840825
-0.805545
-0.805023
-0.83932
-0.852598
-0.863658
-0.872874
-0.880553
-0.880313
-0.872117
-0.862279
-0.850471
-0.836299
-0.802516
-0.798764
-0.7961
-0.795941
-0.795805
-0.7957
-0.795604
-0.834187
-0.848993
-0.861333
-0.871617
-0.880182
-0.88018
-0.871621
-0.861343
-0.849008
-0.83421
-0.834234
-0.849023
-0.861352
-0.87162
-0.880174
-0.880166
-0.87162
-0.861359
-0.849043
-0.834266
-0.834299
-0.849066
-0.861368
-0.871621
-0.880158
-0.880201
-0.8717
-0.861494
-0.849246
-0.834545
-0.871374
-0.883661
-0.893906
-0.902435
-0.909543
-0.909219
-0.902084
-0.893528
-0.883247
-0.870919
-0.870865
-0.883214
-0.893508
-0.902081
-0.909222
-0.909221
-0.902071
-0.893484
-0.883189
-0.870826
-0.870787
-0.883164
-0.89347
-0.902065
-0.909222
-0.909223
-0.902058
-0.893462
-0.883144
-0.870761
-0.837149
-0.837273
-0.837417
-0.837586
-0.837794
-0.840833
-0.812876
-0.807869