/*--------------------------------*- C++ -*----------------------------------*\
| =========                 |                                                 |
| \\      /  F ield         | OpenFOAM: The Open Source CFD Toolbox           |
|  \\    /   O peration     | Version:  2212                                  |
|   \\  /    A nd           | Website:  www.openfoam.com                      |
|    \\/     M anipulation  |                                                 |
\*---------------------------------------------------------------------------*/
FoamFile
{
    version     2.0;
    format      ascii;
    arch        "LSB;label=32;scalar=64";
    class       volScalarField;
    location    "298";
    object      T;
}
// * * * * * * * * * * * * * * * * * * * * * * * * * * * * * * * * * * * * * //

dimensions      [0 0 0 1 0 0 0];

internalField   nonuniform List<scalar> 
248319
(
310.491
310.349
310.071
309.93
309.793
309.699
309.666
309.724
309.767
309.891
310.066
310.249
310.491
310.43
310.089
309.87
309.697
309.599
309.583
309.999
310.04
310.116
310.197
310.28
310.378
310.296
310.242
310.189
310.141
310.106
310.093
309.84
309.829
309.846
309.884
309.951
310.285
310.206
310.119
309.998
309.87
309.795
309.78
309.94
309.967
310.028
310.099
310.155
310.197
310.185
310.191
310.164
310.122
310.089
310.078
310.155
310.171
310.218
310.288
310.369
310.555
310.545
310.308
310.206
310.106
310.023
309.988
310.014
310.043
310.13
310.25
310.371
310.593
310.58
310.272
310.067
309.878
309.75
309.706
309.526
309.542
309.64
309.829
310.093
310.527
310.499
310.413
310.327
310.225
310.117
310.05
310.241
310.271
310.302
310.324
310.335
310.337
310.246
310.239
310.226
310.212
310.19
310.171
310.049
310.051
310.053
310.052
310.047
310.039
309.973
309.951
309.919
309.863
309.809
309.793
309.888
309.895
309.907
309.905
309.897
309.917
309.854
309.862
309.887
309.918
309.934
309.936
309.968
309.958
309.924
309.87
309.817
309.779
310.14
310.188
310.173
310.144
310.123
310.118
310.232
310.245
310.291
310.366
310.45
310.576
310.569
310.603
310.527
310.435
310.375
310.354
310.243
310.265
310.328
310.419
310.509
310.595
310.542
310.598
310.496
310.386
310.307
310.28
309.937
309.973
310.079
310.227
310.373
310.555
310.54
310.165
309.942
309.741
309.607
309.562
309.426
309.446
309.548
309.732
310.001
310.508
310.524
310.439
310.351
310.235
310.114
310.042
310.226
310.273
310.325
310.361
310.377
310.375
310.192
310.226
310.241
310.236
310.211
310.179
310.147
310.162
310.172
310.17
310.158
310.137
309.97
310.005
310.032
310.051
310.061
310.066
309.974
309.962
309.949
309.933
309.914
309.89
309.839
309.859
309.856
309.82
309.774
309.758
309.82
309.829
309.841
309.832
309.803
309.768
309.688
309.745
309.8
309.84
309.852
309.852
309.874
309.869
309.841
309.781
309.705
309.625
309.616
309.713
309.797
309.863
309.897
309.905
310.004
309.99
309.947
309.883
309.813
309.745
310.152
310.187
310.172
310.149
310.135
310.133
310.274
310.291
310.345
310.43
310.514
310.562
310.544
310.67
310.624
310.527
310.456
310.432
310.575
310.6
310.682
310.805
310.879
310.403
310.504
310.76
310.665
310.553
310.48
310.456
310.65
310.682
310.783
310.939
311.051
310.466
310.538
310.721
310.588
310.446
310.346
310.311
309.773
309.816
309.946
310.137
310.329
310.542
310.497
310.023
309.768
309.548
309.404
309.357
309.279
309.3
309.408
309.602
309.879
310.458
310.508
310.417
310.328
310.212
310.09
310.02
310.188
310.249
310.318
310.363
310.381
310.376
310.221
310.263
310.279
310.268
310.226
310.177
310.14
310.176
310.2
310.194
310.163
310.113
310.048
310.093
310.124
310.138
310.132
310.116
310.053
310.055
310.047
310.024
309.989
309.944
309.844
309.882
309.916
309.946
309.971
309.992
309.907
309.884
309.861
309.837
309.81
309.778
309.742
309.788
309.8
309.773
309.729
309.713
309.758
309.769
309.786
309.776
309.737
309.67
309.591
309.673
309.743
309.786
309.793
309.789
309.815
309.814
309.791
309.726
309.638
309.542
309.541
309.645
309.741
309.814
309.845
309.85
309.903
309.898
309.868
309.803
309.714
309.609
309.696
309.793
309.868
309.92
309.948
309.955
310.05
310.036
309.997
309.94
309.871
309.79
310.21
310.215
310.184
310.159
310.148
310.149
310.298
310.316
310.371
310.457
310.541
310.577
310.583
310.715
310.685
310.597
310.527
310.503
310.695
310.721
310.803
310.909
310.919
310.418
310.237
311.368
311.597
311.437
311.281
311.235
310.915
310.954
311.086
311.286
311.307
310.292
310.128
311.342
311.761
311.844
311.769
311.732
311.215
311.256
311.363
311.461
311.399
310.413
310.527
310.975
310.836
310.648
310.507
310.46
309.609
309.653
309.794
310.034
310.302
310.546
310.494
309.876
309.577
309.344
309.199
309.153
309.137
309.155
309.264
309.469
309.761
310.434
310.497
310.392
310.298
310.184
310.064
309.994
310.146
310.222
310.307
310.362
310.384
310.379
310.258
310.303
310.315
310.292
310.229
310.158
310.141
310.203
310.255
310.266
310.242
310.194
310.162
310.203
310.223
310.212
310.164
310.107
310.089
310.117
310.134
310.123
310.091
310.046
310.001
310.034
310.059
310.069
310.056
310.035
309.987
309.979
309.964
309.938
309.905
309.868
309.749
309.784
309.819
309.854
309.889
309.922
309.843
309.812
309.782
309.754
309.724
309.69
309.669
309.73
309.749
309.724
309.679
309.663
309.697
309.71
309.732
309.727
309.686
309.603
309.535
309.628
309.702
309.74
309.738
309.73
309.761
309.764
309.749
309.688
309.598
309.503
309.512
309.607
309.703
309.775
309.802
309.803
309.866
309.862
309.833
309.764
309.672
309.572
309.75
309.837
309.905
309.95
309.967
309.966
309.982
309.983
309.974
309.94
309.881
309.801
309.911
309.98
310.016
310.029
310.038
310.043
310.12
310.108
310.084
310.053
310.022
309.965
310.349
310.282
310.218
310.188
310.185
310.191
310.332
310.347
310.395
310.49
310.606
310.688
310.693
310.805
310.752
310.659
310.595
310.574
310.805
310.83
310.914
311.046
311.051
310.562
310.388
311.511
311.784
311.745
311.637
311.594
312.426
312.412
312.317
312.025
311.462
310.177
310.052
311.25
311.818
312.114
312.181
312.174
312.388
312.343
312.132
311.636
310.909
309.853
309.953
311.088
311.712
312.104
312.247
312.262
311.906
311.929
311.939
311.812
311.453
310.297
310.5
311.345
311.303
311.138
310.987
310.935
309.67
309.707
309.845
310.124
310.459
310.554
310.528
309.775
309.44
309.206
309.07
309.027
309.086
309.094
309.189
309.384
309.693
310.482
310.548
310.441
310.35
310.239
310.118
310.04
310.185
310.283
310.379
310.436
310.451
310.43
310.328
310.395
310.418
310.388
310.306
310.207
310.198
310.292
310.369
310.39
310.365
310.301
310.311
310.352
310.368
310.34
310.26
310.171
310.135
310.217
310.3
310.339
310.339
310.324
310.144
310.169
310.18
310.164
310.116
310.064
310.018
310.063
310.112
310.135
310.135
310.127
309.966
309.983
309.999
310.004
309.992
309.977
309.92
309.905
309.887
309.863
309.836
309.812
309.679
309.705
309.737
309.773
309.812
309.854
309.78
309.743
309.709
309.681
309.653
309.62
309.611
309.679
309.7
309.673
309.626
309.609
309.633
309.649
309.677
309.678
309.641
309.556
309.506
309.597
309.663
309.692
309.681
309.671
309.71
309.717
309.712
309.66
309.577
309.496
309.524
309.594
309.679
309.744
309.763
309.761
309.836
309.836
309.811
309.747
309.666
309.587
309.758
309.838
309.902
309.944
309.959
309.958
310.299
310.299
310.3
310.304
310.318
310.341
310.262
310.271
310.287
310.308
310.325
310.331
310.387
310.378
310.355
310.324
310.293
310.262
310.371
310.417
310.448
310.47
310.467
310.462
310.409
310.413
310.426
310.422
310.382
310.335
310.772
310.763
310.695
310.618
310.565
310.549
310.428
310.453
310.53
310.671
310.826
310.905
310.908
310.94
310.867
310.767
310.704
310.684
310.918
310.938
311.009
311.14
311.301
310.834
310.728
312.011
312.044
311.852
311.713
311.675
312.879
312.869
312.786
312.56
312.135
310.531
310.323
311.898
312.461
312.827
313.002
313.048
312.595
312.549
312.34
311.867
311.139
309.983
309.828
310.836
311.651
312.261
312.567
312.643
312.418
312.344
312.028
311.389
310.581
309.721
309.817
310.798
311.516
312.048
312.295
312.353
312.257
312.24
312.116
311.793
311.297
310.18
310.456
311.576
311.784
311.798
311.727
311.69
310.264
310.296
310.438
310.751
311.048
310.582
310.594
309.9
309.508
309.287
309.175
309.141
309.265
309.249
309.291
309.421
309.72
310.61
310.706
310.657
310.628
310.577
310.512
310.46
310.612
310.649
310.658
310.632
310.586
310.523
310.424
310.522
310.602
310.658
310.663
310.624
310.595
310.639
310.646
310.599
310.518
310.428
310.468
310.548
310.608
310.63
310.605
310.555
310.51
310.564
310.605
310.612
310.58
310.519
310.58
310.614
310.615
310.581
310.524
310.471
310.091
310.167
310.251
310.302
310.318
310.334
310.346
310.287
310.257
310.198
310.116
310.048
309.965
310.005
310.055
310.086
310.098
310.106
309.934
309.937
309.941
309.94
309.927
309.916
309.854
309.834
309.815
309.796
309.78
309.77
309.628
309.644
309.668
309.7
309.74
309.787
309.717
309.676
309.642
309.616
309.592
309.566
309.563
309.632
309.65
309.619
309.569
309.551
309.566
309.584
309.618
309.627
309.599
309.523
309.497
309.571
309.626
309.643
309.623
309.61
309.659
309.669
309.675
309.637
309.568
309.515
309.569
309.601
309.667
309.719
309.728
309.721
309.81
309.813
309.797
309.747
309.686
309.639
309.804
309.874
309.922
309.949
309.953
309.947
310.288
310.301
310.332
310.381
310.45
310.479
312.311
312.163
311.906
311.515
311.185
311.068
310.99
311.092
311.383
311.734
311.978
312.053
311.94
311.833
311.578
311.249
310.991
310.903
310.829
310.902
311.128
311.445
311.731
311.911
311.814
311.602
311.302
311.01
310.825
310.77
310.522
310.538
310.612
310.776
311.037
311.351
311.289
311.071
310.872
310.722
310.642
310.621
310.716
310.733
310.803
310.941
311.155
311.791
310.912
310.941
310.866
310.771
310.71
310.693
310.86
310.878
310.948
311.104
311.413
310.88
310.769
311.99
312.072
311.862
311.686
311.632
312.964
312.933
312.786
312.462
311.965
310.507
310.254
311.678
312.302
312.75
312.982
313.046
313.037
312.962
312.671
312.115
311.377
310.068
310.169
311.641
312.31
312.774
313.002
313.063
313.07
313
312.722
312.168
311.412
310.064
309.732
310.621
311.466
312.167
312.554
312.656
312.418
312.315
311.902
311.166
310.351
309.639
309.735
310.575
311.336
311.967
312.292
312.371
312.35
312.304
312.105
311.69
311.129
310.098
310.409
311.574
311.932
312.148
312.221
312.224
311.297
311.327
311.443
311.606
311.585
310.611
310.715
310.575
310.132
309.875
309.772
309.743
309.728
309.688
309.665
309.705
309.98
310.766
310.843
310.864
310.93
311.005
311.084
311.132
311.109
311.005
310.892
310.793
310.702
310.612
310.528
310.641
310.753
310.872
311.003
311.123
311.13
311.024
310.893
310.772
310.663
310.565
310.635
310.728
310.83
310.945
311.055
311.14
311.163
311.099
311.012
310.913
310.822
310.72
310.835
310.95
311.028
311.11
311.181
311.233
311.36
311.319
311.262
311.198
311.136
311.011
310.667
310.671
310.646
310.593
310.527
310.477
310.605
310.645
310.706
310.765
310.802
310.816
310.378
310.256
310.204
310.139
310.062
310.004
309.909
309.945
309.995
310.033
310.055
310.082
309.904
309.892
309.886
309.877
309.862
309.854
309.788
309.765
309.749
309.738
309.733
309.738
309.594
309.596
309.611
309.636
309.672
309.721
309.654
309.611
309.578
309.557
309.541
309.524
309.524
309.586
309.599
309.563
309.509
309.491
309.495
309.516
309.556
309.574
309.557
309.502
309.505
309.55
309.588
309.592
309.564
309.547
309.607
309.621
309.637
309.616
309.571
309.558
309.643
309.627
309.663
309.696
309.693
309.682
309.78
309.789
309.787
309.759
309.727
309.72
309.881
309.931
309.955
309.958
309.942
309.928
310.292
310.32
310.392
310.496
310.631
310.693
312.799
312.5
312.134
311.658
311.271
311.137
311.787
311.936
312.46
313.248
313.994
314.493
314.267
313.596
312.818
312.101
311.649
311.519
311.36
311.475
311.879
312.527
313.26
313.983
313.637
312.91
312.235
311.659
311.306
311.207
311.048
311.123
311.404
311.891
312.485
313.172
312.617
311.833
311.337
311.04
310.892
310.854
310.779
310.81
310.931
311.163
311.486
311.995
311.689
311.416
311.126
310.887
310.745
310.701
310.827
310.866
311.014
311.312
311.792
312.612
313.362
311.965
311.393
311.093
310.959
310.925
310.843
310.862
310.937
311.101
311.433
312.006
311.991
312.335
312.127
311.793
311.581
311.529
313.192
313.19
313.11
312.897
312.554
311.878
311.783
312.334
312.774
313.138
313.334
313.389
313.372
313.3
313.048
312.624
312.168
311.737
311.727
312.119
312.559
313.002
313.297
313.387
313.057
312.958
312.591
311.947
311.129
309.952
309.887
310.997
311.857
312.561
312.99
313.115
313.125
313.044
312.718
312.088
311.262
310.029
309.682
310.48
311.331
312.096
312.554
312.681
312.431
312.297
311.8
311.008
310.216
309.609
309.703
310.423
311.201
311.904
312.297
312.396
312.395
312.334
312.085
311.605
311.005
310.061
310.388
311.51
311.925
312.219
312.36
312.396
312.09
312.102
312.111
312.029
311.798
310.634
310.844
311.379
311.172
310.934
310.831
310.802
310.468
310.437
310.412
310.461
310.779
310.939
310.974
311.053
311.144
311.249
311.365
311.447
311.364
311.214
311.062
310.932
310.818
310.706
310.645
310.766
310.895
311.042
311.214
311.382
311.423
311.261
311.087
310.938
310.817
310.716
310.814
310.915
311.031
311.176
311.342
311.488
311.569
311.446
311.298
311.166
311.058
310.937
311.113
311.259
311.354
311.466
311.587
311.685
311.866
311.798
311.71
311.626
311.552
311.386
311.846
312.014
312.059
312.107
312.156
312.192
311.591
311.563
311.523
311.48
311.438
311.313
311.79
311.873
311.893
311.913
311.932
311.944
310.925
310.954
310.997
311.042
311.075
311.102
310.471
310.28
310.209
310.134
310.06
310.014
309.854
309.885
309.933
309.977
310.009
310.061
309.873
309.849
309.832
309.816
309.798
309.792
309.724
309.7
309.688
309.686
309.694
309.714
309.573
309.562
309.564
309.578
309.609
309.657
309.591
309.548
309.519
309.506
309.499
309.495
309.493
309.541
309.545
309.504
309.446
309.426
309.422
309.446
309.492
309.519
309.516
309.493
309.53
309.534
309.55
309.54
309.503
309.484
309.554
309.572
309.6
309.598
309.582
309.624
309.74
309.666
309.663
309.671
309.653
309.637
309.737
309.754
309.77
309.767
309.77
309.807
309.926
309.954
309.96
309.943
309.908
309.884
310.297
310.337
310.436
310.564
310.703
310.816
312.96
312.648
312.196
311.653
311.235
311.093
311.605
311.732
312.219
313.013
313.867
314.534
314.696
313.812
312.989
312.286
311.932
311.91
314.695
320.696
336.871
378.055
453.393
443.02
360.498
326.3
316.295
313.156
312.536
313.398
317.487
340.629
425.062
406.748
329.192
314.785
313.239
313.034
313.823
313.897
314.789
325.466
396.911
407.195
329.458
316.039
314.862
314.762
315.421
315.658
318.036
338.228
423.352
423.451
338.414
318.206
315.847
315.657
315.613
315.698
315.72
315.88
317.941
336.344
419.674
409.364
330.192
316.456
315.273
315.202
314.568
314.651
315.828
329.372
408.246
418.485
333.692
316.068
314.089
313.807
313.39
314.53
319.429
346.453
436.194
451.15
368.758
331.648
319.319
314.857
318.481
326.744
345.453
386.874
459.507
460.795
388.648
344.823
325.206
317.328
314.734
318.829
332.236
372.119
453.554
439.592
350.572
320.706
314.886
313.648
314.031
314.364
316.933
337.427
423.975
414.346
332.436
316.41
314.824
314.681
315.235
315.329
316.75
331.92
412.64
417.548
335.105
317.777
315.948
315.793
315.733
315.192
314.625
313.91
313.165
312.768
312.78
312.427
312.595
313.155
313.945
314.632
315.094
314.885
314.356
313.634
312.863
312.339
312.181
311.878
312.001
312.449
313.184
313.952
314.571
314.148
313.401
312.632
311.987
311.637
311.545
311.196
311.249
311.452
311.872
312.48
313.565
312.633
311.963
311.546
311.248
311.086
311.041
311.006
311.07
311.273
311.621
312.093
312.68
312.03
311.481
311.172
310.951
310.84
310.813
310.9
310.932
311.059
311.326
311.763
313.283
313.306
311.884
311.367
311.061
310.916
310.88
310.955
310.989
311.125
311.424
311.952
314.167
314.702
312.694
311.971
311.572
311.394
311.35
311.464
311.513
311.726
312.228
312.831
313.665
313.774
313.67
313.607
313.53
313.419
313.373
314.002
313.996
313.978
313.974
313.983
313.7
313.563
314.191
314.227
314.214
314.221
314.226
314.404
314.408
314.424
314.443
314.305
313.541
313.689
314.408
314.64
314.635
314.597
314.583
313.432
313.333
313.017
312.576
312.15
311.765
311.852
312.281
312.686
313.112
313.435
313.545
313.196
313.059
312.593
311.857
310.972
309.887
310.055
311.166
312.049
312.743
313.114
313.21
312.725
312.579
312.065
311.26
310.414
309.682
309.625
310.161
310.923
311.744
312.305
312.473
312.437
312.323
311.873
311.118
310.335
309.719
310.069
310.929
311.556
312.088
312.381
312.457
312.48
312.436
312.263
311.924
311.474
310.406
310.671
311.862
312.17
312.354
312.429
312.445
311.882
311.899
311.942
311.994
311.928
310.952
311.084
311.716
311.608
311.505
311.481
311.482
311.685
311.58
311.44
311.317
311.214
311.09
310.804
310.938
311.068
311.216
311.393
311.573
311.594
311.397
311.199
311.034
310.896
310.773
310.879
310.981
311.112
311.276
311.475
311.663
311.757
311.591
311.401
311.239
311.113
311.007
311.175
311.311
311.429
311.576
311.741
311.878
312.044
311.942
311.813
311.694
311.593
311.421
311.797
311.988
312.062
312.145
312.23
312.295
312.719
312.696
312.66
312.623
312.585
312.399
312.987
312.878
312.847
312.82
312.797
312.785
312.496
312.49
312.481
312.474
312.468
312.436
312.836
312.394
312.261
312.152
312.071
312.028
311.973
311.984
312.006
312.038
312.081
312.259
311.515
311.417
311.381
311.344
311.311
311.288
310.189
310.225
310.289
310.365
310.445
310.679
310.076
309.959
309.918
309.872
309.826
309.799
309.731
309.736
309.757
309.781
309.807
309.843
309.694
309.659
309.64
309.632
309.637
309.66
309.594
309.55
309.529
309.526
309.538
309.564
309.476
309.464
309.459
309.464
309.487
309.527
309.36
309.381
309.442
309.49
309.495
309.473
309.495
309.477
309.463
309.425
309.372
309.345
309.421
309.442
309.487
309.514
309.523
309.571
309.709
309.602
309.581
309.56
309.519
309.495
309.585
309.605
309.639
309.661
309.71
309.848
309.868
309.788
309.753
309.732
309.699
309.674
309.806
309.832
309.875
309.898
309.892
309.858
310.647
310.625
310.549
310.441
310.327
310.266
310.891
311.035
311.45
312.021
312.564
313.006
314.186
314.405
314.572
315.9
330.661
412.989
405.277
414.481
431.175
441.457
445.268
369.171
359.882
344.001
331.456
327.221
314.609
314.804
317.739
325.309
331.76
317.958
315.311
313.077
312.897
313.48
313.345
312.61
312.163
312.461
313.235
311.451
311.515
311.85
312.464
313.218
312.84
312.109
311.529
311.183
311.073
312.102
311.849
311.824
312.243
312.926
313.128
312.684
312.879
314.132
315.251
325.29
322.851
318.556
315.783
315.062
333.104
338.299
347.608
354.197
356.395
433.62
434.345
434.379
427.24
420.609
426.257
335.405
316.238
314.335
314.135
313.913
314.734
315.05
315.563
319.859
345.917
434.634
424.585
338.348
317.836
315.427
315.136
314.857
315.239
315.401
315.68
316.252
320.547
346.908
432.058
436.376
349.384
321.158
316.529
316.058
316.009
316.008
316.08
316.415
319.879
344.499
430.594
423.934
339.38
318.922
316.507
316.29
316.213
316.207
316.302
316.538
319.019
339.548
423.622
416.856
335.087
317.777
315.908
315.731
315.644
315.127
315.179
315.304
316.805
332.26
412.585
413.793
422.38
435.807
448.64
456.167
382.048
366.623
348.241
336.934
332.479
316.445
316.878
319.96
328.718
338.554
321.272
317.39
314.682
314.403
314.839
314.695
314.091
313.624
314.111
315.318
312.709
312.802
313.269
313.997
314.64
314.617
314.024
313.288
312.715
312.522
312.311
312.474
312.997
313.717
314.339
314.748
314.401
313.88
313.18
312.482
312.05
311.924
311.503
311.583
311.885
312.47
313.204
313.981
313.47
312.394
311.826
311.435
311.243
311.191
311.05
311.086
311.234
311.518
311.909
312.625
313.462
312.101
311.608
311.276
311.11
311.063
311.052
311.096
311.268
311.619
312.168
313.576
313.603
312.273
311.637
311.255
311.066
311.016
311.035
311.08
311.257
311.635
312.332
314.331
314.071
311.868
311.395
311.125
310.997
310.962
311.262
311.301
311.455
311.792
312.452
314.608
315.13
314.111
313.659
313.226
312.977
312.911
313.127
313.198
313.424
313.774
314.072
315.211
315.566
314.571
314.418
314.334
314.298
314.286
314.513
314.523
314.565
314.661
314.822
315.852
316.073
315.017
314.833
314.71
314.65
314.634
314.709
314.732
314.815
314.971
315.21
316.209
316.34
315.419
315.092
314.885
314.774
314.741
314.747
314.775
314.839
314.833
314.534
313.9
314.189
314.761
315.061
315.051
314.952
314.908
313.686
313.578
313.269
312.863
312.466
312.008
309.948
311.042
311.953
312.707
313.193
313.345
313.311
313.21
312.809
312.081
311.174
310.141
309.731
310.427
311.267
312.096
312.65
312.819
312.533
312.344
311.737
310.906
310.172
309.682
309.791
310.298
311.093
311.888
312.384
312.518
312.535
312.453
312.128
311.557
310.91
310.126
310.461
311.472
311.95
312.328
312.528
312.582
312.637
312.608
312.495
312.266
311.923
310.74
311.049
312.204
312.407
312.466
312.481
312.481
312.201
312.21
312.214
312.237
312.169
311.199
311.201
311.358
311.47
311.606
311.763
311.886
311.75
311.549
311.354
311.192
311.053
310.918
310.92
311.046
311.192
311.368
311.583
311.801
311.892
311.686
311.471
311.295
311.159
311.059
311.221
311.334
311.468
311.641
311.845
312.024
312.184
312.044
311.871
311.718
311.593
311.441
311.76
311.948
312.052
312.173
312.302
312.403
312.715
312.66
312.585
312.51
312.44
312.233
312.923
313.102
313.132
313.158
313.181
313.196
312.844
312.894
312.97
313.056
313.152
313.458
313.636
312.796
312.426
312.116
311.871
311.732
311.838
311.932
312.102
312.322
312.583
313.292
312.017
311.665
311.404
311.167
310.978
310.864
311.136
311.216
311.36
311.545
311.756
312.207
312.156
311.796
311.679
311.581
311.509
311.473
311.36
311.383
311.422
311.473
311.532
311.752
310.956
310.685
310.61
310.544
310.491
310.46
309.773
309.793
309.838
309.892
309.949
310.157
309.813
309.764
309.73
309.699
309.675
309.67
309.598
309.578
309.581
309.599
309.63
309.675
309.562
309.52
309.493
309.482
309.493
309.531
309.468
309.432
309.419
309.425
309.442
309.469
309.461
309.45
309.432
309.377
309.31
309.283
309.274
309.3
309.357
309.406
309.439
309.508
309.628
309.522
309.483
309.436
309.38
309.352
309.44
309.464
309.519
309.567
309.634
309.813
309.966
309.761
309.659
309.603
309.55
309.521
309.609
309.637
309.683
309.729
309.799
309.916
309.719
309.745
309.761
309.759
309.732
309.708
310.162
310.24
310.372
310.468
310.483
310.417
312.826
312.32
311.738
311.173
310.769
310.612
310.344
310.507
310.902
311.449
312.031
312.545
313.629
313.844
314.094
317.14
343.555
435.991
430.838
430.608
427.078
420.673
419.81
342.869
343.304
343.923
341.647
338.962
315.66
316.232
317.52
318.704
319.101
312.877
312.657
312.327
312.359
312.763
312.511
311.86
311.413
311.215
311.179
310.686
310.829
311.188
311.747
312.457
312.099
311.403
310.859
310.49
310.324
310.582
310.738
311.05
311.513
312.167
313.143
312.195
311.877
311.673
311.503
315.49
315.962
316.721
317.848
319.901
350.889
347.354
341.344
336.269
334.81
411.983
413.464
424.633
434.766
439.07
443.924
358.27
324.889
316.122
314.087
313.489
315.117
317.181
321.726
334.844
370.649
449.57
442.264
355.208
323.738
316.42
315.087
314.728
315.167
316.31
319.293
330.166
365.538
448.144
440.504
354.545
323.798
316.89
315.56
315.06
315.128
315.403
315.987
320.012
345.376
430.373
430.955
347.166
320.714
316.207
315.549
315.282
315.494
315.823
316.52
321.442
349.382
433.361
441.436
354.621
322.766
316.988
316.331
316.247
316.251
316.369
316.773
320.591
346.652
433.238
425.153
340.355
319.476
317.004
316.784
316.704
316.85
316.947
317.191
319.944
341.973
426.879
435.315
347.997
321.287
317.374
316.992
316.821
316.107
316.274
316.618
319.897
343.904
430.554
422.043
337.706
318.204
315.908
315.667
315.529
315.051
314.63
314.056
313.352
312.828
312.669
314.504
319.312
334.515
375.307
450.434
446.308
365.258
327.686
316.783
313.869
313.67
314.731
320.518
351.101
439.241
429.308
340.494
317.475
314.497
314.15
314.703
314.885
316.866
335.462
421.08
418.295
334.619
317.129
315.306
315.137
315.162
315.371
317.882
339.262
427.45
435.273
343.289
318.231
315.039
314.752
314.234
314.792
319.824
350.069
441.448
444.52
358.512
322.772
315.11
313.777
313.79
316.573
327.436
363.354
442.174
442.124
366.053
330.385
317.844
314.024
312.676
312.849
313.389
314.097
314.671
315.099
314.586
314.383
314.006
313.425
312.856
312.617
312.629
312.856
313.42
314.009
314.398
314.603
314.259
314.025
313.574
312.967
312.476
312.301
311.948
312.074
312.491
313.116
313.68
313.997
313.533
313.018
312.478
311.977
311.652
311.554
311.548
311.678
312.043
312.563
313.108
313.573
313.184
312.518
312.018
311.618
311.383
311.315
311.3
311.392
311.66
312.078
312.597
313.204
313.582
312.664
312.036
311.579
311.32
311.247
311.197
311.27
311.529
311.997
312.664
313.72
313.888
312.145
311.61
311.267
311.089
311.038
311.046
311.094
311.271
311.633
312.233
314.166
314.176
312.329
311.755
311.395
311.211
311.158
311.228
311.278
311.464
311.851
312.545
314.63
314.728
314.017
313.441
312.903
312.639
312.571
314.061
314.104
314.208
314.293
314.369
314.746
315.348
314.7
314.529
314.422
314.36
314.332
314.481
314.499
314.559
314.676
314.867
315.477
315.614
314.987
314.739
314.583
314.5
314.474
314.423
314.454
314.562
314.769
315.098
315.801
316.032
315.203
314.773
314.499
314.36
314.318
314.181
314.228
314.4
314.749
315.29
316.294
316.46
315.637
315.196
314.92
314.776
314.734
314.672
314.719
314.901
315.261
315.823
316.587
314.569
315.065
315.283
315.246
315.108
315.047
313.89
313.792
313.517
313.154
312.738
312.239
310.081
311.207
312.144
312.898
313.377
313.528
313.469
313.363
312.953
312.213
311.288
310.287
309.83
310.514
311.353
312.191
312.766
312.947
312.643
312.435
311.802
310.968
310.248
309.779
309.904
310.351
311.113
311.954
312.482
312.628
312.65
312.559
312.208
311.601
310.956
310.225
310.558
311.53
312.02
312.425
312.644
312.704
312.8
312.764
312.632
312.375
312.011
310.842
311.161
312.382
312.639
312.745
312.786
312.795
312.5
312.509
312.506
312.516
312.405
311.316
311.326
311.495
311.616
311.763
311.933
312.068
311.943
311.726
311.515
311.343
311.194
311.053
311.087
311.215
311.367
311.554
311.784
312.018
312.141
311.924
311.695
311.508
311.364
311.262
311.464
311.588
311.731
311.913
312.127
312.311
312.516
312.375
312.2
312.042
311.911
311.744
312.136
312.337
312.442
312.561
312.685
312.78
313.133
313.086
313.02
312.952
312.887
312.681
313.398
313.552
313.572
313.587
313.599
313.603
312.858
312.948
313.087
313.256
313.444
313.914
313.785
312.919
312.521
312.218
311.982
311.84
310.827
310.912
311.053
311.214
311.358
311.443
311.688
311.465
311.247
311.039
310.872
310.764
309.815
309.855
309.949
310.062
310.165
310.239
310.63
310.529
310.377
310.209
310.064
309.986
310.338
310.415
310.564
310.745
310.926
311.137
311.547
311.228
311.09
310.963
310.865
310.82
311.122
311.144
311.194
311.261
311.339
311.61
311.119
310.825
310.754
310.695
310.648
310.623
309.793
309.809
309.852
309.909
309.979
310.282
309.785
309.72
309.679
309.642
309.614
309.61
309.535
309.52
309.531
309.56
309.601
309.658
309.564
309.509
309.468
309.443
309.441
309.471
309.406
309.377
309.375
309.393
309.424
309.47
309.46
309.405
309.372
309.309
309.238
309.213
309.199
309.228
309.293
309.355
309.409
309.533
309.698
309.531
309.456
309.387
309.32
309.292
309.381
309.412
309.483
309.565
309.684
309.935
310.097
309.83
309.671
309.573
309.498
309.464
309.537
309.573
309.636
309.709
309.816
309.975
309.569
309.593
309.623
309.639
309.627
309.61
310
310.087
310.22
310.295
310.278
310.183
309.942
310.037
310.072
310.018
309.897
309.812
310.076
310.239
310.618
311.13
311.669
312.144
311.618
311.212
310.75
310.306
309.971
309.829
309.766
309.89
310.257
310.784
311.461
312.965
313.544
311.426
310.666
310.148
309.814
309.704
309.908
310.069
310.416
310.977
312.096
315.354
312.016
310.583
310.188
310.034
311.107
311.072
311.829
315.45
321.911
338.451
327.661
319.817
317.462
318.749
354.373
349.977
356.087
366.809
378.566
456.012
451.224
444.379
437.644
441.465
454.129
447.939
447.045
450.348
453.435
374.675
366.915
362.789
364.284
373.92
327.855
323.674
323.915
328.674
337.725
323.32
316.241
312.709
312.102
312.815
310.062
310.087
310.443
312.296
316.827
312.399
310.797
310.178
309.894
309.735
309.51
309.59
309.87
310.344
311.299
315.981
320.392
333.863
343.725
359.223
391.585
459.33
463.166
400.434
370.83
356.626
346.926
328.627
323.029
336.868
351.049
374.097
411.546
468.571
458.46
389.438
351.455
332.595
323.42
316.783
319.061
330.181
341.741
362.956
401.433
464.541
455.597
382.038
344.191
327.713
320.74
316.349
316.885
322.312
330.248
348.016
386.765
458.166
450.167
369.289
332.579
320.435
316.809
315.387
315.202
315.695
317.164
324.737
356.835
441.906
440.961
355.358
324.093
317.124
315.896
315.497
315.505
315.745
316.332
320.408
345.73
429.617
432.087
347.902
321.101
316.617
315.973
315.627
316.378
316.467
317.057
322.244
352.536
439.786
430.744
344.476
320.24
316.919
316.549
316.397
317.163
317.218
317.398
319.53
338.941
423.012
426.986
342.041
320.35
317.761
317.581
317.514
317.595
317.704
318.02
321.957
349.135
436.714
442.839
355.61
323.841
318.335
317.838
317.804
316.993
317.076
317.605
322.861
353.646
441.005
434.024
346.966
320.643
316.708
316.321
316.248
315.625
315.685
315.932
318.581
339.782
425.364
424.916
339.889
318.585
315.882
315.603
315.465
314.95
314.567
314.039
313.347
312.775
312.582
313.147
315.247
322.918
349.437
424.997
424.33
349.156
322.255
314.967
313.213
313.559
314.613
321.072
350.976
431.305
436.316
349.71
319.739
314.696
314.142
314.67
314.987
318.402
344.605
434.029
428.027
340.245
318.017
315.332
315.077
315.068
315.425
319.508
347.348
437.606
441.596
356.064
324.055
316.365
314.886
314.275
315.626
323.359
355.701
439.005
428.048
348.382
320.822
314.531
313.484
312.964
314.123
319.377
341.049
414.753
412.689
338.918
318.694
313.91
312.772
312.554
312.748
313.327
314.034
314.577
314.957
314.424
314.205
313.881
313.381
312.873
312.651
312.623
312.825
313.338
313.86
314.179
314.353
314.215
314.09
313.777
313.256
312.755
312.555
312.219
312.346
312.778
313.358
313.777
313.903
313.45
313.104
312.656
312.207
311.89
311.78
311.808
311.974
312.395
312.924
313.38
313.668
313.323
313.084
312.663
312.17
311.8
311.677
311.587
311.699
312.055
312.566
313.065
313.433
313.558
313.025
312.462
311.941
311.596