/*--------------------------------*- C++ -*----------------------------------*\
| =========                 |                                                 |
| \\      /  F ield         | OpenFOAM: The Open Source CFD Toolbox           |
|  \\    /   O peration     | Version:  2212                                  |
|   \\  /    A nd           | Website:  www.openfoam.com                      |
|    \\/     M anipulation  |                                                 |
\*---------------------------------------------------------------------------*/
FoamFile
{
    version     2.0;
    format      ascii;
    arch        "LSB;label=32;scalar=64";
    class       volScalarField;
    location    "280";
    object      p;
}
// * * * * * * * * * * * * * * * * * * * * * * * * * * * * * * * * * * * * * //

dimensions      [0 2 -2 0 0 0 0];

internalField   nonuniform List<scalar> 
248319
(
0
0.0192807
0.0402702
0.0499121
0.0579518
0.0646545
0.0702482
0.109359
0.103294
0.0960203
0.0872979
0.0768387
0.0510495
0.0498379
0.0761407
0.0872741
0.0965702
0.104328
0.110799
0.0812601
0.0763903
0.0706019
0.063674
0.055348
0.0330957
0.0137213
0.0280084
0.0342211
0.039521
0.0440856
0.0480594
0.0626212
0.0577836
0.0519862
0.0450476
0.0367392
0.0196805
-0.0539516
-0.0471953
-0.0434508
-0.0403273
-0.0377068
-0.035531
-0.0212303
-0.024698
-0.0288566
-0.0338343
-0.0397996
-0.0507607
-0.0555461
-0.040219
-0.0334767
-0.0278616
-0.0231812
-0.0192646
0.0634668
0.0574273
0.0501788
0.0414878
0.0310665
0.00054319
0.0309083
0.0593117
0.0692842
0.0775986
0.0845264
0.0903056
0.100137
0.09449
0.0877149
0.0795879
0.0698443
0.0359031
0.0499511
0.0749743
0.0847373
0.0928746
0.0996585
0.105313
0.109529
0.103006
0.0951844
0.085808
0.0745686
0.0473147
0.0190782
0.0397502
0.0463771
0.0519033
0.0565861
0.0606349
-0.0356294
-0.0383597
-0.0410898
-0.043818
-0.046548
-0.0535708
-0.0515019
-0.0438542
-0.0414658
-0.0392255
-0.0370874
-0.0350229
-0.140385
-0.140794
-0.141185
-0.141553
-0.141892
-0.145267
-0.144829
-0.141953
-0.140974
-0.14016
-0.139479
-0.138907
-0.132515
-0.133792
-0.135338
-0.137176
-0.139386
-0.144443
-0.145907
-0.139378
-0.136705
-0.134477
-0.132607
-0.131066
-0.133988
-0.135626
-0.137604
-0.139964
-0.142808
-0.150193
-0.0695811
-0.0525789
-0.0457586
-0.0400729
-0.0353397
-0.0313774
0.047316
0.0406956
0.0327549
0.0232239
0.0117974
-0.0194639
-0.00915943
0.0315415
0.0452777
0.0567308
0.0662815
0.0742439
0.0901751
0.0833698
0.0752091
0.0654177
0.0536748
0.010414
0.00965627
0.0523156
0.0641534
0.0740201
0.0822434
0.0890996
0.0978805
0.0922994
0.0856024
0.0775655
0.0679234
0.0344803
0.0489437
0.0735217
0.0833201
0.0914843
0.0982875
0.103955
0.109477
0.102782
0.0947551
0.0851323
0.0735957
0.0456364
0.0147867
0.0354129
0.0421983
0.0479113
0.0527929
0.0570393
-0.0392359
-0.0419519
-0.0446698
-0.047388
-0.0501088
-0.058692
-0.147623
-0.143315
-0.142596
-0.141878
-0.14116
-0.140442
-0.139442
-0.140145
-0.140844
-0.141543
-0.142242
-0.146189
-0.244002
-0.242354
-0.242281
-0.242208
-0.242135
-0.242061
-0.242966
-0.242954
-0.242921
-0.24286
-0.242763
-0.24376
-0.2433
-0.242397
-0.242272
-0.242165
-0.242081
-0.242014
-0.238679
-0.239001
-0.239382
-0.239848
-0.240399
-0.242611
-0.242866
-0.239813
-0.239093
-0.23849
-0.237991
-0.237565
-0.238123
-0.238591
-0.239155
-0.239823
-0.240623
-0.244229
-0.24566
-0.241499
-0.240523
-0.239714
-0.23903
-0.238471
-0.136218
-0.138061
-0.140279
-0.142935
-0.146123
-0.15432
-0.0773931
-0.0596775
-0.0525236
-0.0465581
-0.0415929
-0.0374467
0.0342215
0.0274442
0.0193104
0.0095461
-0.00215569
-0.0328421
-0.025282
0.0126348
0.026666
0.0383649
0.0481182
0.0562457
0.0568237
0.048556
0.0386329
0.0267291
0.0124485
-0.0247311
-0.00913123
0.0306873
0.0447087
0.0563951
0.0661374
0.0742584
0.0739296
0.0657278
0.0558868
0.0440809
0.0299115
-0.00975917
0.00872526
0.0514119
0.0634115
0.0734089
0.0817413
0.0886861
0.0975773
0.0919178
0.0851286
0.07698
0.0672036
0.0335565
0.0480734
0.0729865
0.0829149
0.091188
0.0980833
0.103826
0.109427
0.102621
0.0944582
0.0846727
0.0729399
0.0445347
0.0132924
0.0340004
0.0409732
0.0468599
0.0519001
0.056287
-0.0407158
-0.043439
-0.0461617
-0.0488845
-0.0516088
-0.0603949
-0.148682
-0.144126
-0.14345
-0.142775
-0.1421
-0.141425
-0.242711
-0.242787
-0.242863
-0.24294
-0.243017
-0.245107
-0.244488
-0.242465
-0.242392
-0.24232
-0.242248
-0.242174
-0.343424
-0.343421
-0.343419
-0.343418
-0.343415
-0.344196
-0.343962
-0.343396
-0.343418
-0.343438
-0.34346
-0.34348
-0.344214
-0.344162
-0.344097
-0.34402
-0.343925
-0.344014
-0.343692
-0.3436
-0.343654
-0.343705
-0.343746
-0.343781
-0.341961
-0.342008
-0.342061
-0.342129
-0.34221
-0.343037
-0.342991
-0.341734
-0.341606
-0.341492
-0.341404
-0.341337
-0.341477
-0.341559
-0.341669
-0.341803
-0.341955
-0.34348
-0.343956
-0.342137
-0.34195
-0.341785
-0.341653
-0.341541
-0.340745
-0.340939
-0.341155
-0.341426
-0.341746
-0.343998
-0.246044
-0.241075
-0.239698
-0.238552
-0.237589
-0.236803
-0.134503
-0.136821
-0.139609
-0.142949
-0.14695
-0.156211
-0.0818271
-0.0633055
-0.0553396
-0.0486959
-0.0431739
-0.0385517
0.0239823
0.0175034
0.00972631
0.000394543
-0.0107906
-0.0404997
-0.0341712
0.00128197
0.0135971
0.0238659
0.0324262
0.0395596
0.0405673
0.0333959
0.0247906
0.0144666
0.00208214
-0.0330914
-0.0329101
0.00219236
0.0145639
0.0248755
0.0334706
0.0406317
0.0567234
0.0484199
0.0384555
0.0265028
0.0121601
-0.0248761
-0.0250468
0.0120462
0.0263894
0.0383412
0.0483018
0.0566012
0.0737338
0.0655207
0.0556647
0.0438352
0.0296433
-0.0101096
0.00827706
0.0511167
0.0631531
0.0731784
0.0815371
0.0885002
0.0974533
0.0917745
0.084963
0.0767871
0.0669731
0.033149
0.0476893
0.0727847
0.0827549
0.0910612
0.0979841
0.103751
0.109384
0.102532
0.0943145
0.0844623
0.0726511
0.044066
0.0127378
0.0335619
0.0406035
0.0465495
0.0516418
0.0560702
-0.0411982
-0.0439172
-0.0466354
-0.0493542
-0.0520747
-0.061002
-0.149289
-0.144725
-0.144045
-0.143365
-0.142685
-0.142006
-0.243171
-0.243247
-0.243325
-0.243402
-0.243478
-0.245557
-0.344851
-0.344025
-0.344025
-0.344024
-0.344024
-0.344024
-0.343705
-0.343706
-0.343706
-0.343706
-0.343707
-0.344542
-0.444324
-0.443997
-0.443997
-0.443996
-0.443996
-0.443996
-0.443833
-0.443832
-0.443832
-0.443831
-0.443829
-0.444116
-0.444023
-0.443867
-0.44388
-0.443894
-0.443908
-0.443921
-0.444475
-0.444445
-0.444406
-0.444359
-0.444304
-0.444157
-0.444021
-0.444159
-0.444218
-0.444272
-0.444317
-0.444351
-0.443417
-0.443417
-0.443411
-0.443405
-0.4434
-0.443657
-0.443735
-0.443289
-0.443285
-0.443271
-0.443267
-0.443251
-0.443609
-0.443631
-0.443627
-0.443648
-0.443665
-0.444176
-0.444742
-0.444201
-0.444166
-0.44415
-0.44414
-0.444117
-0.444405
-0.44443
-0.444467
-0.444502
-0.444558
-0.445182
-0.445381
-0.444559
-0.444443
-0.44434
-0.444265
-0.444201
-0.338867
-0.339234
-0.339655
-0.340169
-0.340784
-0.343676
-0.245833
-0.239644
-0.237463
-0.235644
-0.234117
-0.232857
-0.124301
-0.127554
-0.131467
-0.136162
-0.141798
-0.154692
-0.0825013
-0.0606249
-0.05135
-0.0436148
-0.0371833
-0.0317974
0.016183
0.00997958
0.00253761
-0.00639136
-0.0171013
-0.0445927
-0.0407031
-0.0115098
-0.00120202
0.00739421
0.014556
0.0205295
0.0212629
0.0153427
0.00824165
-0.000281201
-0.0105032
-0.0395427
-0.0393206
-0.0103375
-0.000137922
0.00836414
0.015448
0.0213545
0.0213279
0.0154243
0.00834871
-0.000146364
-0.010344
-0.0393564
-0.0329657
0.00218158
0.0145429
0.0248454
0.0334281
0.0405807
0.0405296
0.0333778
0.024798
0.0144975
0.00213724
-0.0330633
-0.02518
0.0119726
0.0263143
0.0382656
0.0482238
0.056521
0.0736352
0.0654196
0.0555609
0.0437284
0.0295334
-0.0102921
0.00808229
0.0510105
0.0630518
0.0730838
0.0814476
0.0884154
0.0973991
0.0917177
0.0849001
0.076719
0.0669005
0.033
0.0475581
0.0727235
0.0827038
0.0910187
0.0979491
0.103722
0.109373
0.102505
0.094269
0.0843931
0.0725549
0.0439229
0.0125822
0.0335124
0.0405939
0.046574
0.0516921
0.0561377
-0.0413526
-0.0440811
-0.0468087
-0.0495362
-0.052265
-0.0612191
-0.149547
-0.144992
-0.14431
-0.143629
-0.142946
-0.142262
-0.243442
-0.243519
-0.243596
-0.243672
-0.24375
-0.245809
-0.345067
-0.344263
-0.344263
-0.344263
-0.344263
-0.344262
-0.444431
-0.444431
-0.444432
-0.444432
-0.444432
-0.444735
-0.444547
-0.444226
-0.444225
-0.444225
-0.444225
-0.444225
-0.543798
-0.543798
-0.543798
-0.543799
-0.543799
-0.543936
-0.543749
-0.543606
-0.543606
-0.543606
-0.543605
-0.543605
-0.543484
-0.543485
-0.543486
-0.543484
-0.543484
-0.543607
-0.54357
-0.543522
-0.543528
-0.543535
-0.543541
-0.543547
-0.543926
-0.54391
-0.543891
-0.543867
-0.543838
-0.543706
-0.543721
-0.543864
-0.543904
-0.54393
-0.54395
-0.543982
-0.543644
-0.543628
-0.543637
-0.543624
-0.543616
-0.54366
-0.543976
-0.543885
-0.543879
-0.543895
-0.543876
-0.543884
-0.544623
-0.544614
-0.544634
-0.544623
-0.544628
-0.544663
-0.545661
-0.545741
-0.54574
-0.545743
-0.545732
-0.545736
-0.547068
-0.547072
-0.547078
-0.547079
-0.547085
-0.546866
-0.548123
-0.548462
-0.548435
-0.54843
-0.54841
-0.548399
-0.549289
-0.549313
-0.549353
-0.549387
-0.549437
-0.549072
-0.445319
-0.44412
-0.443846
-0.443621
-0.443436
-0.443278
-0.336052
-0.336711
-0.337482
-0.338416
-0.339542
-0.3433
-0.246652
-0.238956
-0.235641
-0.232875
-0.23056
-0.228639
-0.121753
-0.125792
-0.130657
-0.136494
-0.143497
-0.159713
-0.109582
-0.081507
-0.0711905
-0.0625847
-0.0554125
-0.0494301
-0.0145011
-0.020423
-0.0275161
-0.0360327
-0.0462452
-0.0736389
-0.0681662
-0.0358163
-0.0257654
-0.0173877
-0.0103995
-0.00457097
-0.00459684
-0.0104153
-0.0173893
-0.0257566
-0.0358018
-0.0676272
-0.0675458
-0.0358216
-0.0257761
-0.0174056
-0.0104301
-0.00461538
-0.00466461
-0.0104775
-0.0174551
-0.0258222
-0.035866
-0.0676165
-0.0677102
-0.0359251
-0.0258757
-0.017503
-0.0105255
-0.00470972
0.021288
0.0153845
0.00830665
-0.00019061
-0.0103904
-0.0394374
-0.0395023
-0.0104321
-0.000231184
0.00827028
0.0153531
0.0212563
0.040498
0.0333437
0.0247597
0.0144585
0.00209659
-0.033134
-0.0252564
0.011931
0.0262712
0.0382217
0.0481804
0.0564796
0.0735881
0.0653726
0.0555141
0.0436838
0.02949
-0.0103738
0.00801211
0.0509741
0.0630143
0.0730478
0.0814118
0.0883794
0.0973796
0.0916969
0.0848781
0.0766974
0.0668831
0.0329613
0.0475288
0.0727103
0.0826902
0.0910061
0.0979367
0.103712
0.109366
0.102497
0.0942571
0.0843774
0.0725365
0.0438939
0.0125511
0.0335056
0.0405912
0.0465734
0.0516944
0.0561414
-0.0413804
-0.0441116
-0.0468402
-0.0495685
-0.0522992
-0.0612602
-0.149629
-0.145082
-0.144399
-0.143716
-0.143035
-0.142352
-0.243569
-0.243646
-0.243723
-0.2438
-0.243878
-0.24592
-0.345196
-0.344406
-0.344405
-0.344405
-0.344405
-0.344405
-0.444595
-0.444595
-0.444595
-0.444596
-0.444596
-0.444886
-0.544346
-0.544239
-0.544239
-0.544238
-0.544238
-0.544237
-0.544013
-0.544014
-0.544014
-0.544014
-0.544015
-0.544135
-0.643246
-0.643205
-0.643204
-0.643204
-0.643203
-0.643203
-0.642913
-0.642913
-0.642914
-0.642914
-0.642914
-0.642974
-0.64277
-0.642701
-0.6427
-0.6427
-0.642699
-0.642699
-0.642574
-0.642574
-0.642574
-0.642574
-0.642575
-0.64264
-0.642614
-0.642584
-0.642586
-0.642587
-0.642589
-0.642592
-0.642828
-0.642821
-0.642814
-0.642806
-0.642794
-0.64272
-0.642831
-0.642929
-0.642939
-0.642952
-0.642972
-0.642972
-0.643016
-0.643024
-0.643013
-0.643015
-0.643013
-0.642985
-0.643504
-0.643557
-0.643563
-0.643559
-0.643559
-0.643559
-0.644631
-0.644636
-0.644627
-0.644638
-0.644629
-0.644453
-0.645893
-0.646278
-0.646281
-0.64627
-0.646279
-0.646274
-0.64849
-0.648492
-0.648497
-0.6485
-0.648497
-0.647847
-0.650213
-0.651159
-0.651162
-0.651157
-0.651149
-0.651153
-0.65364
-0.653641
-0.653649
-0.653654
-0.653658
-0.652503
-0.65321
-0.654525
-0.654499
-0.65449
-0.654468
-0.654464
-0.548932
-0.549004
-0.549084
-0.549177
-0.549291
-0.549063
-0.445039
-0.443198
-0.442628
-0.442152
-0.441755
-0.441432
-0.332393
-0.333546
-0.334897
-0.336535
-0.338501
-0.343563
-0.247291
-0.235369
-0.230329
-0.226126
-0.222607
-0.219701
-0.125693
-0.13035
-0.135935
-0.142637
-0.150674
-0.17014
-0.126767
-0.0995797
-0.0890737
-0.080314
-0.0730119
-0.0669261
-0.055349
-0.0619166
-0.0698055
-0.0792631
-0.0906113
-0.121094
-0.102531
-0.0664804
-0.0549384
-0.0453136
-0.0372924
-0.0306027
-0.0307551
-0.0374077
-0.0453903
-0.0549665
-0.0664561
-0.10179
-0.101678
-0.0665598
-0.0550701
-0.0454919
-0.0375087
-0.030857
-0.0309346
-0.0375872
-0.0455717
-0.0551497
-0.0666432
-0.101733
-0.101825
-0.066707
-0.0552086
-0.0456303
-0.037643
-0.0309881
-0.0310221
-0.0376769
-0.0456665
-0.0552497
-0.066753
-0.101896
-0.0677789
-0.0359699
-0.0259156
-0.017538
-0.0105582
-0.00473933
-0.00475402
-0.0105762
-0.0175581
-0.0259411
-0.0359952
-0.0678215
-0.0395415
-0.0104564
-0.000253075
0.00824643
0.015334
0.0212365
0.0404798
0.0333236
0.0247384
0.0144353
0.00207061
-0.0331774
-0.0252965
0.0119081
0.02625
0.0382013
0.0481618
0.056459
0.0735701
0.065355
0.0554967
0.0436665
0.0294733
-0.0104048
0.00799465
0.0509652
0.0630033
0.0730365
0.0814003
0.0883656
0.0973734
0.0916905
0.0848743
0.0766952
0.0668802
0.0329601
0.0475315
0.072708
0.0826887
0.0910053
0.0979341
0.103709
0.109365
0.102495
0.0942557
0.0843757
0.0725343
0.0439046
0.0125735
0.0335394
0.0406311
0.0466169
0.0517393
0.0561881
-0.0413664
-0.0440957
-0.0468238
-0.0495544
-0.0522858
-0.0612467
-0.149639
-0.145099
-0.144417
-0.143732
-0.143049
-0.142368
-0.243617
-0.243693
-0.243771
-0.24385
-0.243926
-0.24596
-0.345269
-0.344489
-0.344488
-0.344488
-0.344488
-0.344488
-0.444732
-0.444732
-0.444733
-0.444733
-0.444734
-0.445012
-0.544574
-0.544485
-0.544484
-0.544483
-0.544483
-0.544483
-0.644059
-0.644059
-0.64406
-0.644061
-0.644063
-0.64404
-0.6436
-0.643587
-0.643586
-0.643585
-0.643584
-0.643584
-0.742912
-0.742913
-0.742913
-0.742915
-0.742916
-0.742846
-0.742212
-0.74223
-0.742229
-0.742228
-0.742227
-0.742227
-0.741756
-0.741756
-0.741756
-0.741757
-0.741758
-0.741774
-0.741493
-0.741457
-0.741457
-0.741456
-0.741456
-0.741456
-0.741287
-0.741287
-0.741288
-0.741288
-0.741289
-0.741331
-0.741284
-0.741251
-0.741251
-0.74125
-0.741251
-0.741251
-0.74136
-0.741359
-0.741359
-0.74136
-0.74136
-0.741345
-0.741492
-0.741535
-0.741537
-0.74154
-0.741543
-0.741545
-0.741821
-0.741821
-0.74182
-0.741819
-0.74182
-0.74177
-0.742402
-0.742523
-0.74252
-0.742516
-0.742525
-0.74252
-0.743777
-0.743771
-0.743771
-0.743767
-0.743777
-0.743501
-0.745205
-0.745719
-0.745712
-0.745724
-0.745715
-0.745721
-0.748481
-0.74848
-0.748484
-0.748476
-0.74848
-0.747631
-0.750748
-0.752027
-0.752023
-0.752022
-0.752023
-0.752024
-0.755813
-0.755827
-0.755811
-0.755824
-0.755822
-0.754143
-0.757006
-0.758297
-0.758298
-0.758284
-0.758298
-0.758283
-0.75234
-0.752345
-0.752344
-0.75236
-0.752362
-0.750904
-0.650112
-0.651422
-0.651366
-0.651332
-0.651289
-0.651271
-0.546511
-0.546686
-0.546864
-0.547083
-0.547356
-0.54755
-0.444582
-0.44178
-0.440705
-0.439808
-0.439057
-0.438444
-0.328975
-0.330782
-0.332939
-0.335539
-0.338649
-0.345468
-0.255361
-0.239717
-0.233205
-0.227776
-0.223246
-0.219476
-0.140943
-0.146825
-0.153869
-0.16233
-0.172467
-0.201273
-0.161019
-0.133939
-0.123846
-0.115427
-0.108407
-0.102548
-0.0845158
-0.0909445
-0.0986531
-0.1079
-0.118986
-0.153266
-0.152019
-0.118414
-0.107518
-0.098432
-0.0908606
-0.0845483
-0.0556931
-0.0621092
-0.0698162
-0.0790588
-0.0901482
-0.119893
-0.119713
-0.0901878
-0.0791264
-0.0699072
-0.0622246
-0.0558234
-0.0559202
-0.0623199
-0.0699982
-0.0792147
-0.0902712
-0.119776
-0.119867
-0.0903435
-0.0792838
-0.0700649
-0.062382
-0.0559826
-0.0560184
-0.0624199
-0.0701055
-0.0793294
-0.0903941
-0.119936
-0.119978
-0.0904209
-0.0793549
-0.0701268
-0.0624409
-0.0560342
-0.0310392
-0.0376938
-0.0456858
-0.0552717
-0.0667797
-0.101941
-0.101964
-0.066789
-0.0552806
-0.0456947
-0.0377028
-0.0310428
-0.00476421
-0.0105822
-0.0175672
-0.0259502
-0.0360065
-0.0678457
-0.0395629
-0.0104679
-0.000262559
0.00823919
0.0153245
0.0212301
0.040471
0.033316
0.0247274
0.0144236
0.00205755
-0.0332021
-0.0253181
0.0118974
0.0262404
0.0381908
0.048152
0.0564511
0.0735648
0.0653496
0.0554896
0.0436635
0.0294691
-0.0104164
0.00799317
0.050966
0.063004
0.0730344
0.0813964
0.0883634
0.0973717
0.0916907
0.0848765
0.0766984
0.0668837
0.0329675
0.0475376
0.0727104
0.0826913
0.0910065
0.0979359
0.103709
0.109364
0.102494
0.0942553
0.0843766
0.0725353
0.0439103
0.012586
0.0335476
0.0406382
0.0466251
0.0517446
0.0561912
-0.0413443
-0.0440733
-0.0468023
-0.049533
-0.0522656
-0.0612238
-0.149628
-0.14509
-0.144408
-0.143723
-0.143039
-0.142357
-0.243634
-0.24371
-0.243789
-0.243867
-0.243944
-0.245973
-0.345319
-0.344544
-0.344543
-0.344543
-0.344542
-0.344542
-0.444852
-0.444852
-0.444852
-0.444853
-0.444853
-0.445124
-0.544813
-0.544746
-0.544745
-0.544745
-0.544744
-0.544744
-0.644604
-0.644604
-0.644605
-0.644607
-0.644609
-0.644538
-0.744703
-0.744961
-0.744958
-0.744955
-0.744954
-0.744953
-0.743839
-0.743839
-0.74384
-0.743842
-0.743844
-0.743693
-0.843877
-0.844226
-0.844223
-0.844221
-0.84422
-0.84422
-0.842482
-0.842482
-0.842483
-0.842484
-0.842487
-0.842305
-0.841186
-0.841264
-0.841263
-0.841262
-0.841261
-0.841261
-0.840482
-0.840483
-0.840483
-0.840484
-0.840485
-0.840466
-0.84004
-0.840028
-0.840027
-0.840027
-0.840026
-0.840026
-0.839776
-0.839777
-0.839777
-0.839778
-0.839779
-0.839806
-0.839717
-0.839681
-0.839679
-0.839678
-0.839676
-0.839675
-0.83969
-0.839694
-0.839699
-0.839702
-0.839708
-0.839727
-0.839872
-0.839878
-0.839878
-0.839872
-0.839869
-0.839867
-0.840227
-0.840232
-0.840223
-0.840227
-0.840229
-0.840182
-0.840815
-0.840947
-0.84094
-0.840944
-0.840949
-0.840944
-0.842174
-0.842174
-0.842183
-0.842171
-0.842178
-0.841894
-0.843588
-0.844109
-0.844108
-0.844109
-0.84411
-0.844104
-0.846923
-0.846938
-0.846924
-0.846931
-0.846934
-0.846055
-0.849295
-0.850693
-0.850682
-0.850683
-0.850691
-0.850684
-0.854987
-0.854977
-0.854983
-0.854974
-0.854986
-0.852845
-0.856036
-0.85867
-0.858666
-0.858665
-0.858664
-0.858667
-0.85925
-0.859254
-0.859251
-0.859255
-0.859252
-0.858025
-0.901222
-0.901631
-0.901619
-0.90161
-0.901599
-0.901592
-0.925091
-0.933771
-0.941007
-0.947041
-0.952069
-0.952067
-0.94704
-0.941011
-0.933779
-0.925103
-0.925114
-0.933789
-0.941022
-0.947044
-0.952059
-0.952058
-0.947037
-0.941019
-0.933794
-0.925132
-0.925149
-0.933806
-0.941028
-0.947032
-0.952048
-0.952212
-0.947049
-0.940859
-0.933426
-0.924508
-0.925726
-0.93443
-0.941687
-0.947728
-0.952766
-0.909916
-0.903482
-0.895761
-0.886495
-0.875374
-0.848788
-0.805053
-0.838013
-0.851579
-0.862884
-0.872304
-0.880152
-0.879995
-0.871982
-0.862359
-0.850815
-0.83696
-0.837504
-0.851173
-0.862562
-0.872053
-0.87996
-0.879976
-0.872066
-0.86257
-0.851175
-0.837501
-0.837501
-0.851182
-0.862578
-0.872074
-0.879989
-0.880008
-0.872087
-0.862585
-0.851182
-0.837501
-0.837499
-0.851183
-0.862588
-0.872092
-0.880011
-0.865278
-0.856789
-0.846602
-0.834375
-0.819703
-0.819704
-0.834372
-0.846596
-0.856783
-0.86527
-0.865261
-0.856775
-0.84659
-0.834368
-0.819704
-0.8197
-0.834364
-0.846582
-0.856762
-0.865247
-0.86523
-0.856751
-0.846573
-0.834358
-0.8197
-0.818219
-0.833309
-0.845885
-0.856361
-0.865088
-0.865044
-0.856212
-0.845611
-0.832887
-0.817618
-0.782391
-0.782324
-0.782394
-0.78238
-0.782361
-0.782343
-0.782339
-0.718815
-0.718872
-0.718918
-0.718987
-0.719065
-0.717973
-0.636436
-0.636835
-0.636458
-0.636159
-0.63589
-0.635682
-0.536297
-0.537009
-0.537839
-0.538863
-0.540071
-0.542412
-0.446147
-0.439721
-0.436562
-0.433936
-0.431731
-0.429906
-0.321607
-0.325314
-0.329746
-0.335074
-0.341457
-0.356612
-0.30215
-0.273979
-0.264377
-0.256376
-0.249701
-0.244139
-0.204061
-0.209642
-0.216352
-0.224394
-0.234032
-0.260235
-0.222122
-0.195106
-0.18512
-0.176791
-0.16985
-0.164063
-0.150258
-0.15652
-0.164027
-0.173033
-0.183838
-0.214777
-0.191905
-0.153447
-0.141725
-0.131952
-0.123806
-0.117015
-0.116773
-0.12346
-0.131476
-0.141098
-0.152641
-0.190276
-0.189906
-0.152591
-0.141082
-0.131489
-0.1235
-0.116834
-0.0846707
-0.0909689
-0.09853
-0.107603
-0.118485
-0.15184
-0.151887
-0.118568
-0.10769
-0.0986241
-0.0910682
-0.0847766
-0.0848437
-0.0911386
-0.0986969
-0.107766
-0.118651
-0.151984
-0.152059
-0.118705
-0.107815
-0.098743
-0.0911822
-0.0848853
-0.0849035
-0.091203
-0.0987695
-0.107841
-0.118736
-0.152104
-0.15213
-0.118751
-0.107855
-0.0987816
-0.091213
-0.0849099
-0.0560399
-0.0624493
-0.0701375
-0.0793656
-0.0904337
-0.12
-0.120009
-0.090437
-0.0793652
-0.0701384
-0.0624479
-0.0560385
-0.0310428
-0.0377027
-0.0456947
-0.0552851
-0.0667916
-0.101974
-0.0678526
-0.0360101
-0.0259513
-0.0175709
-0.0105834
-0.00476544
0.0212275
0.0153218
0.00823648
-0.000267357
-0.0104713
-0.0395715
-0.0332139
0.00205196
0.0144183
0.0247222
0.0333128
0.0404684
0.0564511
0.0481479
0.038187
0.0262382
0.0118951
-0.0253267
-0.0104184
0.0294721
0.0436664
0.0554918
0.0653477
0.0735629
0.0883615
0.0813968
0.0730375
0.0630071
0.0509698
0.00799693
0.0329744
0.0668886
0.0766997
0.0848771
0.0916921
0.0973701
0.103709
0.0979351
0.0910048
0.0826918
0.0727146
0.0475443
0.0439189
0.0725393
0.0843784
0.0942545
0.102492
0.109362
0.0562026
0.0517564
0.0466362
0.04065
0.0335601
0.0126006
-0.0612056
-0.0522492
-0.0495174
-0.0467882
-0.0440568
-0.0413267
-0.142346
-0.143029
-0.143712
-0.144395
-0.145079
-0.149616
-0.245979
-0.24395
-0.243872
-0.243794
-0.243717
-0.243639
-0.344581
-0.344581
-0.344581
-0.344581
-0.344582
-0.345354
-0.445223
-0.44496
-0.44496
-0.444959
-0.444959
-0.444959
-0.544993
-0.544994
-0.544994
-0.544996
-0.544997
-0.545044
-0.645038
-0.64516
-0.645156
-0.645154
-0.645153
-0.645152
-0.74613
-0.746131
-0.746133
-0.746135
-0.746138
-0.745757
-0.847909
-0.848778
-0.848776
-0.848775
-0.848774
-0.848773
-0.846412
-0.846413
-0.846414
-0.846416
-0.846418
-0.845831
-0.948399
-0.949574
-0.949573
-0.949572
-0.949571
-0.949571
-0.945523
-0.945524
-0.945525
-0.945526
-0.945527
-0.94485
-0.942116
-0.942465
-0.942464
-0.942462
-0.942462
-0.942461
-0.940422
-0.940423
-0.940423
-0.940425
-0.940426
-0.940268
-0.939136
-0.939192
-0.939191
-0.93919
-0.939189
-0.939189
-0.938501
-0.938502
-0.938502
-0.938503
-0.938503
-0.938496
-0.938161
-0.938143
-0.938142
-0.938141
-0.938141
-0.93814
-0.937969
-0.937973
-0.937975
-0.937975
-0.937978
-0.938011
-0.937968
-0.937936
-0.937928
-0.937923
-0.937917
-0.937912
-0.938047
-0.938049
-0.938054
-0.938059
-0.93807
-0.938079
-0.93835
-0.938383
-0.938378
-0.938377
-0.938377
-0.938377
-0.93898
-0.93898
-0.93898
-0.938984
-0.93898
-0.938877
-0.939767
-0.939992
-0.940001
-0.939989
-0.939998
-0.939993
-0.941602
-0.941596
-0.941596
-0.9416
-0.941601
-0.941178
-0.943266
-0.943989
-0.943988
-0.943989
-0.943976
-0.943992
-0.947244
-0.94724
-0.94725
-0.947253
-0.947245
-0.946036
-0.949101
-0.951246
-0.95125
-0.951252
-0.951242
-0.951244
-0.955694
-0.955679
-0.955693
-0.95569
-0.955688
-0.951641
-0.967735
-0.985656
-0.991795
-0.996912
-1.00117
-1.00473
-1.00416
-1.00415
-1.00415
-1.00415
-1.00416
-1.00065
-1.00066
-1.00066
-1.00066
-1.00067
-0.996471
-0.996465
-0.996456
-0.99645
-0.996441
-0.991389
-0.991401
-0.991411
-0.991432
-0.991451
-0.985415
-0.985384
-0.98536
-0.985346
-0.985325
-0.969942
-0.969944
-0.969964
-0.969977
-0.969992
-1.05318
-1.05315
-1.05314
-1.05313
-1.05311
-1.05712
-1.05713
-1.05716
-1.05718
-1.05722
-1.05966
-1.05964
-1.05962
-1.0596
-1.0596
-1.06166
-1.06167
-1.06168
-1.06169
-1.06171
-1.06341
-1.0634
-1.06339
-1.06339
-1.06338
-1.06481
-1.06482
-1.06481
-1.06483
-1.06482
-1.0653
-1.06384
-1.06207
-1.05996
-1.05742
-1.05285
-1.05259
-1.05801
-1.06059
-1.06275
-1.06454
-1.06602
-1.00583
-1.00235
-0.998174
-0.993159
-0.987137
-0.965433
-0.902031
-0.904948
-0.929522
-0.937281
-0.94375
-0.949137
-0.953619
-0.910395
-0.904627
-0.897705
-0.8894
-0.879435
-0.851445
-0.807337
-0.841153
-0.853815
-0.86437
-0.87316
-0.880488
-0.865259
-0.856743
-0.846523
-0.834259
-0.819539
-0.784404
-0.783322
-0.81858
-0.833617
-0.846146
-0.856587
-0.865283
-0.865112
-0.856099
-0.84528
-0.832292
-0.816707
-0.781265
-0.780824
-0.817147
-0.832614
-0.845503
-0.856239
-0.865186
-0.865328
-0.865341
-0.865353
-0.865358
-0.865364
-0.856615
-0.85661
-0.856606
-0.8566
-0.85659
-0.846105
-0.846108
-0.846111
-0.846111
-0.846113
-0.833508
-0.83351
-0.833515
-0.833517
-0.833518
-0.818418
-0.818408
-0.818401
-0.81839
-0.818383
-0.780349
-0.780379
-0.780415
-0.780468
-0.780519
-0.716442
-0.716171
-0.715942
-0.715755
-0.715592
-0.630711
-0.63124
-0.631882
-0.632632
-0.633553
-0.634409
-0.541637
-0.537026
-0.534638
-0.532641
-0.530994
-0.529597
-0.420791
-0.42372
-0.427255
-0.431498
-0.436573
-0.447943
-0.370534
-0.352039
-0.34454
-0.338295
-0.333082
-0.328732
-0.270582
-0.275923
-0.282333
-0.290021
-0.299245
-0.325114
-0.317652
-0.28799
-0.278389
-0.270382
-0.263711
-0.258149
-0.220265
-0.226541
-0.234072
-0.243107
-0.253943
-0.29216
-0.251762
-0.218278
-0.207715
-0.198905
-0.191557
-0.185435
-0.184861
-0.190837
-0.198001
-0.2066
-0.21691
-0.24982
-0.212886
-0.182747
-0.172251
-0.163507
-0.156212
-0.150136
-0.150109
-0.156153
-0.163402
-0.172095
-0.182533
-0.212392
-0.212334
-0.182537
-0.172116
-0.163433
-0.156198
-0.150161
-0.116921
-0.123577
-0.131562
-0.141144
-0.152645
-0.189883
-0.189961
-0.152714
-0.141212
-0.131628
-0.123643
-0.116984
-0.117025
-0.123687
-0.131674
-0.141264
-0.152765
-0.190031
-0.19008
-0.152798
-0.141293
-0.131701
-0.123709
-0.11705
-0.117058
-0.123718
-0.131714
-0.141305
-0.152815
-0.190107
-0.190119
-0.15282
-0.141308
-0.131715
-0.123719
-0.117059
-0.0849095
-0.0912129
-0.098781
-0.10786
-0.118753
-0.15214
-0.152143
-0.118751
-0.107856
-0.0987744
-0.0912086
-0.0849035
-0.0560311
-0.0624406
-0.0701334
-0.0793609
-0.0904348
-0.120011
-0.101976
-0.0667901
-0.0552832
-0.0456905
-0.0376959
-0.0310391
-0.00475984
-0.0105849
-0.0175688
-0.0259519
-0.0360108
-0.0678556
-0.0395746
-0.0104711
-0.000266333
0.00823537
0.0153255
0.0212279
0.04047
0.0333124
0.024723
0.0144195
0.00205143
-0.0332178
-0.0253286
0.0118949
0.0262388
0.0381886
0.0481476
0.0564523
0.0735618
0.0653486
0.0554952
0.0436679
0.0294749
-0.0104182
0.0079988
0.0509735
0.063009
0.0730408
0.0813979
0.0883622
0.0973694
0.0916924
0.0848765
0.0767001
0.0668904
0.0329796
0.0475506
0.0727157
0.0826917
0.091006
0.0979348
0.103708
0.109361
0.102492
0.0942553
0.0843792
0.0725401
0.0439232
0.0126066
0.0335608
0.0406507
0.0466366
0.0517563
0.0562033
-0.0413187
-0.0440475
-0.0467781
-0.0495085
-0.052239
-0.0611934
-0.149609
-0.145072
-0.144387
-0.143704
-0.143021
-0.142338
-0.243644
-0.243721
-0.243797
-0.243875
-0.243954
-0.245983
-0.345381
-0.344612
-0.344611
-0.344611
-0.344611
-0.344611
-0.445047
-0.445048
-0.445048
-0.445049
-0.445049
-0.445303
-0.545232
-0.545202
-0.5452
-0.545198
-0.545197
-0.545196
-0.645625
-0.645625
-0.645627
-0.64563
-0.645633
-0.645468
-0.746665
-0.747161
-0.747159
-0.747157
-0.747156
-0.747155
-0.850844
-0.850844
-0.850845
-0.850846
-0.850847
-0.849709
-0.956372
-0.957547
-0.95757
-0.957594
-0.957618
-0.957643
-0.953975
-0.953975
-0.953976
-0.953976
-0.953977
-0.952478
-1.0617
-1.06206
-1.06213
-1.06219
-1.06226
-1.06233
-1.05459
-1.05459
-1.05459
-1.05459
-1.05459
-1.05339
-1.04658
-1.04774
-1.04774
-1.04774
-1.04774
-1.04774
-1.04281
-1.04281
-1.04281
-1.04281
-1.04281
-1.04223
-1.03944
-1.0397
-1.0397
-1.03969
-1.03969
-1.03969
-1.03789
-1.03789
-1.03789
-1.0379
-1.0379
-1.0378
-1.03691
-1.03693
-1.03693
-1.03693
-1.03693
-1.03693
-1.03644
-1.03644
-1.03644
-1.03644
-1.03644
-1.03645
-1.03623
-1.03621
-1.0362
-1.0362
-1.0362
-1.0362
-1.03609
-1.03609
-1.03609
-1.0361
-1.03611
-1.03614
-1.03619
-1.03617
-1.03617
-1.03616
-1.03616
-1.03615
-1.03637
-1.03637
-1.03637
-1.03638
-1.03637
-1.03637
-1.03671
-1.03676
-1.03677
-1.03677
-1.03676
-1.03676
-1.03742
-1.03742
-1.03743
-1.03742
-1.03742
-1.03728
-1.03823
-1.03847
-1.03847
-1.03847
-1.03847
-1.03847
-1.04005
-1.04006
-1.04005
-1.04005
-1.04005
-1.03964
-1.04158
-1.04224
-1.04224
-1.04223
-1.04224
-1.04223
-1.04502
-1.04503
-1.04502
-1.04503
-1.04502
-1.04389
-1.0473
-1.04859
-1.04859
-1.04859
-1.0486
-1.04858
-1.13717
-1.13716
-1.13717
-1.13717
-1.13717
-1.13821
-1.13591
-1.13349
-1.1324
-1.13149
-1.13074
-1.13011
-1.12979
-1.12977
-1.12978
-1.12976
-1.12977
-1.13037
-1.13036
-1.13038
-1.13038
-1.1304
-1.13113
-1.13111
-1.1311
-1.13109
-1.13108
-1.13194
-1.13195
-1.13197
-1.13199
-1.13201
-1.13307
-1.13304
-1.13301
-1.13299
-1.13298
-1.13508
-1.13509
-1.1351
-1.13512
-1.13513
-1.22033
-1.22031
-1.2203
-1.22029
-1.22028
-1.2069
-1.20692
-1.20694
-1.20696
-1.20699
-1.20259
-1.20256
-1.20254
-1.20253
-1.20251
-1.19886
-1.19887
-1.19888
-1.19889
-1.19891
-1.19585
-1.19584
-1.19583
-1.19582
-1.19582
-1.19327
-1.19327
-1.19328
-1.19329
-1.1933
-1.19359
-1.19618
-1.19927
-1.20298
-1.20744
-1.22273
-1.22545
-1.20732
-1.20301
-1.19941
-1.19642
-1.19391
-1.13068
-1.13133
-1.1321
-1.13302
-1.13412
-1.13701
-1.13757
-1.13438
-1.13331
-1.13242
-1.13168
-1.13106
-1.06653
-1.0651
-1.06337
-1.0613
-1.05882
-1.05298
-0.96539
-0.98926
-0.994875
-0.99955
-1.00345
-1.00669
-1.00715
-1.00401
-1.00023
-0.995696
-0.990257
-0.967216
-0.907538
-0.931605
-0.938887
-0.944956
-0.950012
-0.954219
-0.9106
-0.90515
-0.898611
-0.890762
-0.881347
-0.852506
-0.807833
-0.842665
-0.854915
-0.865123
-0.87363
-0.880719
-0.865373
-0.857027
-0.847009
-0.834987
-0.820562
-0.785359
-0.784273
-0.819615
-0.834349
-0.846625
-0.856854
-0.865376
-0.880733
-0.873298
-0.864382
-0.853676
-0.840831
-0.805554
-0.805027
-0.839322
-0.8526
-0.86366
-0.872877
-0.880556
-0.880314
-0.872117
-0.862279
-0.85047
-0.836298
-0.802517
-0.798764
-0.796099
-0.795941
-0.795804
-0.795699
-0.795604
-0.834185
-0.848993
-0.861333
-0.871617
-0.880183
-0.880181
-0.871621
-0.861343
-0.849008
-0.834208
-0.834233
-0.849022
-0.861352
-0.871621
-0.880175
-0.880168
-0.87162
-0.861359
-0.849043
-0.834264
-0.834298
-0.849065
-0.861368
-0.871622
-0.880159
-0.880202
-0.871701
-0.861494
-0.849245
-0.834544
-0.871389
-0.883677
-0.893924
-0.902455
-0.909565
-0.909241
-0.902105
-0.893546
-0.883263
-0.870933
-0.870878
-0.88323
-0.893527
-0.902101
-0.909244
-0.909242
-0.902092
-0.893502
-0.883205
-0.870839
-0.8708
-0.88318
-0.893488
-0.902085
-0.909242
-0.909243
-0.902077
-0.89348
-0.88316
-0.870775
-0.837158
-0.837282
-0.837426
-0.837595
-0.837804
-0.840844
-0.812885