/*--------------------------------*- C++ -*----------------------------------*\
| =========                 |                                                 |
| \\      /  F ield         | OpenFOAM: The Open Source CFD Toolbox           |
|  \\    /   O peration     | Version:  2212                                  |
|   \\  /    A nd           | Website:  www.openfoam.com                      |
|    \\/     M anipulation  |                                                 |
\*---------------------------------------------------------------------------*/
FoamFile
{
    version     2.0;
    format      ascii;
    arch        "LSB;label=32;scalar=64";
    class       volScalarField;
    location    "280";
    object      T;
}
// * * * * * * * * * * * * * * * * * * * * * * * * * * * * * * * * * * * * * //

dimensions      [0 0 0 1 0 0 0];

internalField   nonuniform List<scalar> 
248319
(
311.089
310.903
310.305
310.005
309.725
309.54
309.478
309.595
309.675
309.911
310.241
310.597
311.078
310.91
310.306
309.923
309.642
309.492
309.471
310.044
310.116
310.257
310.405
310.561
310.752
310.669
310.545
310.442
310.337
310.248
310.216
309.833
309.815
309.855
309.926
310.04
310.723
310.863
310.446
310.103
309.806
309.647
309.613
309.947
310.018
310.186
310.398
310.607
310.911
311.003
310.855
310.672
310.481
310.332
310.278
310.322
310.374
310.526
310.739
310.963
311.385
311.247
310.733
310.49
310.252
310.061
309.982
309.981
310.045
310.236
310.502
310.777
311.353
311.217
310.576
310.186
309.84
309.609
309.532
309.386
309.408
309.557
309.869
310.324
311.061
310.936
310.744
310.573
310.389
310.199
310.081
310.432
310.521
310.623
310.711
310.786
310.848
310.82
310.724
310.637
310.552
310.453
310.38
310.25
310.304
310.372
310.434
310.488
310.53
310.512
310.407
310.259
310.044
309.852
309.783
310.144
310.194
310.311
310.412
310.455
310.501
310.489
310.502
310.512
310.465
310.378
310.336
310.471
310.505
310.573
310.589
310.546
310.481
311.055
310.98
310.833
310.657
310.51
310.457
310.533
310.588
310.763
311.003
311.239
311.527
311.558
311.415
311.16
310.88
310.678
310.608
310.366
310.426
310.605
310.856
311.107
311.451
311.209
311.09
310.847
310.59
310.402
310.335
309.842
309.91
310.11
310.391
310.675
311.135
311.049
310.333
309.952
309.619
309.399
309.326
309.258
309.289
309.439
309.713
310.144
310.972
310.935
310.754
310.585
310.378
310.164
310.035
310.338
310.445
310.57
310.672
310.747
310.799
310.547
310.544
310.515
310.454
310.361
310.268
310.297
310.374
310.452
310.509
310.546
310.567
310.296
310.3
310.291
310.265
310.217
310.165
310.114
310.15
310.196
310.235
310.261
310.27
310.266
310.245
310.161
309.997
309.825
309.758
310.007
310.053
310.159
310.237
310.25
310.216
310.144
310.229
310.278
310.262
310.191
310.152
310.266
310.295
310.336
310.312
310.227
310.103
310.144
310.291
310.392
310.433
310.405
310.376
310.575
310.612
310.682
310.699
310.645
310.542
311.142
311.05
310.919
310.761
310.619
310.565
310.668
310.738
310.942
311.197
311.428
311.608
311.686
311.673
311.433
311.12
310.875
310.789
310.86
310.93
311.156
311.454
311.649
311.376
311.298
311.406
311.175
310.904
310.709
310.644
310.671
310.731
310.912
311.172
311.405
311.105
311.046
310.985
310.745
310.495
310.311
310.247
309.593
309.665
309.876
310.175
310.48
310.954
310.834
310.04
309.657
309.333
309.121
309.052
309.06
309.097
309.255
309.522
309.924
310.788
310.83
310.667
310.512
310.312
310.098
309.974
310.221
310.34
310.483
310.591
310.662
310.7
310.489
310.505
310.483
310.417
310.306
310.195
310.131
310.228
310.319
310.36
310.355
310.312
310.311
310.339
310.34
310.308
310.24
310.164
310.059
310.116
310.164
310.178
310.161
310.118
310.061
310.084
310.096
310.092
310.068
310.039
309.983
310.002
310.03
310.05
310.057
310.045
310.052
310.08
310.031
309.894
309.737
309.675
309.852
309.898
309.997
310.062
310.054
309.973
309.852
309.989
310.069
310.07
310.005
309.969
310.047
310.073
310.103
310.053
309.93
309.758
309.721
309.917
310.063
310.139
310.132
310.111
310.189
310.205
310.204
310.127
309.984
309.784
310.321
310.468
310.564
310.597
310.563
310.531
310.663
310.708
310.802
310.856
310.839
310.744
311.253
311.139
311.003
310.846
310.704
310.649
310.75
310.825
311.033
311.29
311.526
311.703
311.872
311.823
311.587
311.273
311.018
310.928
311.024
311.098
311.319
311.581
311.72
311.556
311.22
311.944
311.832
311.477
311.25
311.18
310.944
311.012
311.227
311.546
311.775
311.11
310.837
311.963
312.096
311.901
311.688
311.61
311.038
311.108
311.301
311.549
311.692
310.969
310.959
311.056
310.794
310.506
310.289
310.214
309.299
309.366
309.575
309.914
310.293
310.898
310.723
309.751
309.342
309.026
308.827
308.763
308.847
308.881
309.045
309.327
309.72
310.646
310.725
310.559
310.408
310.218
310.013
309.895
310.097
310.229
310.391
310.512
310.585
310.62
310.456
310.481
310.453
310.369
310.23
310.1
310.055
310.179
310.308
310.379
310.389
310.345
310.282
310.32
310.304
310.229
310.102
309.985
310.032
310.121
310.204
310.239
310.23
310.182
310.085
310.124
310.128
310.092
310.015
309.936
309.938
309.982
310.018
310.023
310.003
309.96
309.864
309.895
309.918
309.928
309.922
309.913
309.854
309.858
309.871
309.878
309.873
309.849
309.863
309.922
309.894
309.776
309.63
309.573
309.691
309.736
309.831
309.888
309.87
309.763
309.611
309.782
309.877
309.882
309.818
309.783
309.831
309.857
309.883
309.82
309.676
309.477
309.383
309.602
309.777
309.879
309.886
309.869
309.923
309.931
309.901
309.783
309.598
309.364
309.508
309.734
309.894
309.991
310.018
310.011
310.286
310.31
310.33
310.293
310.196
310.028
310.697
310.811
310.856
310.837
310.765
310.722
310.785
310.838
310.962
311.077
311.128
311.1
311.474
311.267
311.098
310.921
310.776
310.726
310.788
310.858
311.061
311.344
311.641
311.913
312.135
311.973
311.669
311.33
311.085
311.003
311.093
311.157
311.358
311.63
311.846
311.86
311.531
312.069
311.919
311.612
311.399
311.339
312.435
312.473
312.537
312.539
312.344
311.155
310.879
312.062
312.33
312.332
312.192
312.128
312.541
312.542
312.5
312.295
311.804
310.508
310.542
311.812
312.22
312.365
312.334
312.294
311.745
311.81
311.946
312.035
311.887
310.799
310.891
311.371
311.113
310.75
310.497
310.415
309.153
309.205
309.388
309.722
310.213
310.872
310.731
309.51
309.079
308.774
308.589
308.531
308.695
308.723
308.884
309.173
309.582
310.644
310.721
310.536
310.37
310.172
309.963
309.837
310.012
310.179
310.377
310.524
310.61
310.637
310.505
310.554
310.511
310.389
310.199
310.024
309.992
310.16
310.348
310.471
310.509
310.448
310.463
310.478
310.416
310.277
310.087
309.93
309.862
310
310.183
310.331
310.422
310.502
310.243
310.256
310.222
310.136
310.007
309.897
309.811
309.909
310.037
310.134
310.188
310.212
310.006
310.027
310.019
309.977
309.901
309.829
309.818
309.85
309.879
309.882
309.864
309.827
309.696
309.729
309.756
309.775
309.781
309.787
309.726
309.717
309.717
309.715
309.703
309.673
309.687
309.769
309.754
309.649
309.514
309.461
309.523
309.568
309.658
309.711
309.691
309.574
309.413
309.592
309.683
309.687
309.624
309.59
309.617
309.643
309.671
309.608
309.461
309.259
309.141
309.353
309.533
309.645
309.657
309.641
309.685
309.688
309.642
309.506
309.31
309.086
309.166
309.402
309.587
309.712
309.766
309.771
309.982
309.983
309.966
309.928
309.82
309.618
310.021
310.18
310.239
310.258
310.254
310.244
310.602
310.621
310.656
310.675
310.682
310.615
311.351
311.355
311.321
311.243
311.134
311.08
311.044
311.114
311.291
311.446
311.539
311.59
312.2
311.909
311.635
311.366
311.149
311.071
310.807
310.877
311.098
311.445
311.838
312.238
312.521
312.065
311.649
311.279
311.044
310.971
311.014
311.067
311.246
311.546
311.879
312.294
312.014
312.09
311.682
311.335
311.173
311.129
312.508
312.556
312.684
312.784
312.761
311.694
311.249
312.748
312.91
312.948
312.949
312.946
312.711
312.715
312.691
312.545
312.131
310.735
310.372
311.797
312.407
312.665
312.741
312.752
312.588
312.572
312.465
312.132
311.453
310.193
310.275
311.547
312.113
312.391
312.475
312.483
312.252
312.282
312.295
312.162
311.822
310.618
310.826
311.743
311.691
311.402
311.164
311.083
309.47
309.508
309.67
310.063
310.669
310.876
310.773
309.385
308.941
308.661
308.501
308.451
308.69
308.711
308.852
309.101
309.515
310.769
310.902
310.764
310.614
310.403
310.173
310.017
310.216
310.448
310.665
310.77
310.781
310.739
310.594
310.718
310.773
310.702
310.477
310.23
310.185
310.424
310.669
310.771
310.722
310.575
310.652
310.771
310.752
310.587
310.335
310.117
310.048
310.238
310.487
310.692
310.785
310.75
310.872
310.793
310.648
310.432
310.198
310.03
309.777
309.899
310.069
310.222
310.335
310.535
310.572
310.232
310.096
309.949
309.8
309.698
309.712
309.8
309.923
310.028
310.102
310.177
309.936
309.935
309.912
309.861
309.784
309.719
309.698
309.722
309.746
309.752
309.741
309.716
309.554
309.583
309.61
309.631
309.645
309.662
309.598
309.577
309.568
309.56
309.545
309.515
309.52
309.616
309.611
309.518
309.392
309.344
309.349
309.393
309.479
309.528
309.513
309.404
309.247
309.409
309.487
309.487
309.425
309.392
309.401
309.429
309.458
309.404
309.274
309.094
308.978
309.151
309.315
309.423
309.436
309.419
309.459
309.46
309.407
309.271
309.092
308.909
308.944
309.157
309.335
309.466
309.531
309.542
309.748
309.748
309.729
309.688
309.574
309.364
310.762
310.86
310.93
310.913
310.75
310.643
310.8
310.898
311.059
311.077
310.99
310.882
311.224
311.316
311.361
311.263
311.057
310.947
311.154
311.272
311.535
311.743
311.79
311.763
312.339
312.321
312.112
311.766
311.454
311.341
311.108
311.19
311.448
311.815
312.187
312.447
312.682
312.369
311.935
311.507
311.207
311.11
311.108
311.201
311.514
312.021
312.634
313.261
312.731
312.239
311.807
311.428
311.173
311.094
311.055
311.12
311.339
311.679
312.047
312.566
312.296
312.359
311.887
311.429
311.197
311.134
312.632
312.692
312.829
312.903
312.861
311.914
311.338
312.788
312.954
312.993
312.995
312.993
312.994
312.994
312.984
312.906
312.626
310.826
310.86
312.625
312.875
312.948
312.962
312.963
312.957
312.955
312.933
312.818
312.454
310.543
310.107
311.49
312.244
312.606
312.73
312.752
312.591
312.558
312.387
311.929
311.111
309.947
310.074
311.291
311.972
312.348
312.484
312.508
312.42
312.415
312.341
312.115
311.679
310.475
310.761
311.89
312.087
312.096
311.972
311.914
310.462
310.496
310.663
311.097
311.437
310.903
310.891
309.886
309.255
308.95
308.807
308.764
308.993
308.983
309.054
309.203
309.585
310.928
311.071
311.063
311.112
311.12
311.093
311.052
311.213
311.183
311.113
311.027
310.933
310.831
310.683
310.853
310.996
311.122
311.221
311.248
311.238
311.244
311.173
311.045
310.892
310.701
310.828
311.029
311.154
311.252
311.27
311.238
311.302
311.344
311.35
311.292
311.205
311.002
311.252
311.429
311.477
311.504
311.496
311.467
311.532
311.546
311.551
311.544
311.526
311.43
311.012
310.843
310.696
310.507
310.321
310.193
310.36
310.438
310.552
310.674
310.783
311.019
310.595
310.149
310.004
309.865
309.738
309.66
309.612
309.688
309.803
309.911
310.001
310.153
309.872
309.846
309.807
309.746
309.668
309.609
309.58
309.598
309.622
309.633
309.632
309.621
309.436
309.456
309.478
309.497
309.514
309.539
309.47
309.44
309.424
309.414
309.4
309.373
309.365
309.463
309.464
309.382
309.266
309.222
309.172
309.213
309.295
309.343
309.336
309.252
309.112
309.235
309.292
309.285
309.224
309.192
309.189
309.217
309.249
309.208
309.108
308.98
308.883
308.989
309.117
309.21
309.22
309.204
309.239
309.238
309.186
309.066
308.926
308.809
308.792
308.967
309.12
309.239
309.307
309.322
309.552
309.551
309.533
309.508
309.425
309.237
310.945
310.989
310.94
310.828
310.601
310.478
311.1
311.299
311.831
312.404
312.707
312.747
312.664
312.666
312.32
311.781
311.297
311.111
311.205
311.38
311.84
312.36
312.739
312.824
313.139
312.912
312.468
311.929
311.473
311.303
311.388
311.539
311.98
312.545
313.057
313.427
313.324
312.712
312.166
311.696
311.407
311.32
311.17
311.262
311.584
312.092
312.636
313.152
312.848
312.491
312.067
311.627
311.292
311.173
311.205
311.324
311.707
312.29
312.963
313.707
313.777
312.849
312.155
311.582
311.23
311.122
311.036
311.121
311.399
311.861
312.429
313.279
313.19
312.671
312.137
311.556
311.221
311.132
312.703
312.769
312.906
312.995
313.02
313.031
312.757
312.979
313.039
313.037
313.028
313.024
313.023
313.027
313.036
313.007
312.853
312.47
312.211
312.721
312.962
313.03
313.024
313.016
312.986
312.986
312.97
312.839
312.408
310.426
310.163
312.11
312.751
312.955
312.982
312.981
312.952
312.95
312.922
312.763
312.268
310.35
309.927
311.242
312.095
312.546
312.713
312.746
312.588
312.539
312.309
311.752
310.857
309.791
309.948
311.093
311.851
312.305
312.483
312.519
312.463
312.444
312.337
312.055
311.56
310.386
310.718
311.875
312.16
312.293
312.31
312.296
311.535
311.571
311.698
311.872
311.859
310.925
311.053
310.935
310.427
310.054
309.873
309.823
309.662
309.645
309.69
309.846
310.402
311.138
311.235
311.29
311.386
311.488
311.594
311.663
311.648
311.499
311.34
311.195
311.061
310.926
310.782
310.977
311.156
311.338
311.526
311.692
311.758
311.607
311.423
311.238
311.051
310.836
311.008
311.248
311.409
311.569
311.723
311.843
311.952
311.867
311.755
311.638
311.517
311.252
311.61
311.853
311.924
311.991
312.054
312.101
311.634
311.611
311.596
311.588
311.582
311.585
311.102
310.454
310.322
310.208
310.126
310.101
310.852
310.857
310.881
310.915
310.952
311.172
311.032
310.209
310.012
309.847
309.727
309.676
310.057
310.104
310.187
310.29
310.4
310.859
310.565
310.065
309.936
309.821
309.725
309.672
309.514
309.578
309.681
309.787
309.886
310.146
309.81
309.759
309.704
309.634
309.554
309.501
309.464
309.479
309.505
309.524
309.536
309.541
309.34
309.349
309.361
309.375
309.39
309.418
309.343
309.307
309.289
309.279
309.27
309.252
309.226
309.313
309.314
309.242
309.136
309.096
308.995
309.034
309.111
309.16
309.166
309.126
309.014
309.078
309.109
309.09
309.028
308.997
308.986
309.015
309.051
309.029
308.969
308.921
308.852
308.869
308.941
309.007
309.013
308.996
309.023
309.021
308.973
308.88
308.793
308.753
308.629
308.764
308.891
309.003
309.074
309.095
309.373
309.365
309.325
309.264
309.188
309.046
310.888
310.93
310.855
310.635
310.356
310.223
310.605
310.732
311.185
311.801
312.392
312.708
312.962
312.373
311.75
311.183
310.891
310.98
315.335
322.183
336.112
369.792
449.715
433.451
347.433
322.006
315.309
312.302
311.317
311.771
313.665
327.671
406.582
383.244
319.399
312.207
311.736
311.702
312.329
312.302
312.544
317.628
373.538
390.179
322.009
313.665
313.127
313.057
313.224
313.505
314.923
329.539
410.475
412.629
330.539
315.232
313.777
313.616
313.525
313.713
313.778
313.906
315.164
328.989
408.892
396.406
323.799
314.275
313.687
313.671
313.348
313.28
313.64
321.11
387.909
398.882
323.692
313.505
312.791
312.784
312.353
312.943
315.428
333.445
421.13
440.245
355.471
326.671
317.948
314.104
319.37
326.946
342.079
376.746
452.649
454.812
377.886
340.938
325.568
318.283
314.181
317.955
327.132
358.457
444.372
426.888
337.345
316.32
313.264
312.565
312.96
312.97
314.001
326.655
406.572
395.306
323.426
314.065
313.52
313.559
314.001
313.989
314.651
324.822
398.669
406.329
328.221
315.405
314.356
314.308
314.304
314.011
313.607
313.017
312.312
311.916
312.122
311.632
311.865
312.515
313.223
313.698
313.982
313.888
313.614
313.163
312.497
311.876
311.636
311.633
311.836
312.412
313.062
313.506
313.742
313.537
313.341
312.899
312.253
311.724
311.546
311.367
311.478
311.849
312.425
313
313.404
313.123
312.573
312.058
311.583
311.267
311.163
311.244
311.381
311.757
312.267
312.776
313.195
313.105
312.548
312.001
311.499
311.183
311.087
311.083
311.179
311.511
312.047
312.637
313.329
313.59
312.899
312.243
311.655
311.282
311.167
311.085
311.179
311.509
312.058
312.684
313.628
313.678
312.374
311.806
311.356
311.087
311.004
311.105
311.188
311.487
312.047
312.739
313.858
314.026
313.489
313.146
312.786
312.529
312.444
313.087
313.121
313.246
313.479
313.755
314.162
314.265
313.91
313.599
313.302
313.135
313.088
313.083
313.14
313.351
313.696
314.044
314.331
314.355
314.144
313.777
313.388
313.131
313.055
313.013
313.022
313.025
312.923
312.611
312.014
311.903
312.565
312.922
313.039
313.027
313.01
312.978
312.979
312.94
312.666
311.874
310.036
310.248
312.118
312.719
312.921
312.951
312.952
312.747
312.704
312.502
311.989
311.08
309.835
309.717
310.705
311.629
312.252
312.53
312.593
312.534
312.49
312.278
311.77
310.967
309.89
310.351
311.487
312.021
312.34
312.469
312.494
312.414
312.41
312.352
312.178
311.857
310.715
310.956
311.998
312.145
312.15
312.115
312.103
311.394
311.433
311.535
311.682
311.774
311.179
311.314
311.706
311.551
311.343
311.238
311.221
311.965
311.866
311.728
311.6
311.488
311.371
311.022
311.193
311.35
311.521
311.714
311.901
311.945
311.74
311.515
311.303
311.1
310.892
310.981
311.217
311.426
311.639
311.855
312.037
312.145
312.005
311.828
311.649
311.471
311.199
311.508
311.815
311.943
312.068
312.187
312.279
312.393
312.358
312.311
312.259
312.201
311.946
311.519
311.212
311.153
311.105
311.077
311.082
309.45
309.559
309.777
310.05
310.342
311.373
312.293
311.1
310.365
309.742
309.267
308.995
309.004
309.159
309.447
309.825
310.267
311.497
311.187
310.433
309.915
309.374
308.878
308.568
308.787
308.959
309.259
309.607
309.959
310.834
310.632
309.964
309.781
309.611
309.472
309.401
309.545
309.585
309.667
309.771
309.892
310.448
310.137
309.769
309.666
309.566
309.476
309.425
309.395
309.443
309.524
309.603
309.673
309.754
309.474
309.451
309.426
309.396
309.365
309.351
309.301
309.274
309.265
309.262
309.262
309.265
309.154
309.155
309.157
309.162
309.179
309.218
308.968
309.003
309.099
309.165
309.169
309.112
309.033
309.017
308.992
308.938
308.862
308.823
308.822
308.85
308.914
308.949
308.955
308.966
308.929
308.881
308.886
308.88
308.835
308.803
308.813
308.827
308.833
308.807
308.808
308.887
308.728
308.696
308.724
308.781
308.818
308.818
308.864
308.833
308.753
308.644
308.528
308.412
308.626
308.818
308.973
309.094
309.164
309.175
309.837
309.963
310.244
310.53
310.715
310.747
312.269
312.556
312.709
313.271
321.688
392.24
377.472
387.513
415.696
438.56
444.198
366.582
350.462
330.16
319.499
317.627
312.057
311.802
313.617
321.931
332.212
319.357
314.54
311.376
311.229
311.728
311.676
311.11
310.838
311.516
313.35
310.358
310.346
310.58
311.016
311.564
311.041
310.521
310.132
309.906
309.854
311.675
310.807
310.414
310.621
311.125
311.22
310.863
311.197
313.53
316.145
326.36
321.449
314.505
311.987
311.793
319.816
323.561
336.519
350.948
355.113
429.557
434.457
427.098
402.922
390.412
402.021
323.225
313.041
312.332
312.161
311.855
312.062
312.665
313.039
314.903
332.876
418.661
409.092
328.406
314.517
313.173
312.791
312.315
312.905
312.645
313.065
313.591
316.449
337.186
421.327
427.006
339.831
317.073
313.976
313.619
313.51
313.631
313.765
314.032
316.379
336.125
421.237
414.078
332.187
316.098
314.59
314.511
314.506
314.632
314.631
314.7
316.206
332.175
413.257
404.985
328.045
315.391
314.349
314.295
314.273
313.931
313.927
313.946
314.627
324.739
397.486
396.406
406.614
424.137
440.805
450.12
371.738
354.258
336.196
326.816
323.843
314.122
314.045
315.855
323.407
333.177
320.424
315.886
313.062
313.026
313.524
313.546
312.993
312.498
313.24
315.138
311.79
311.846
312.349
313.054
313.582
313.634
313.222
312.568
311.911
311.644
311.684
311.919
312.526
313.14
313.513
313.706
313.455
313.316
312.945
312.327
311.77
311.57
311.385
311.528
312.004
312.648
313.101
313.229
313.254
312.805
312.227
311.662
311.303
311.189
311.047
311.136
311.439
311.913
312.419
313.022
312.913
312.408
311.892
311.387
311.053
310.946
311.053
311.154
311.5
312.033
312.567
312.979
313.146
312.715
312.172
311.618
311.238
311.116
310.992
311.098
311.446
311.972
312.49
312.908
313.171
312.425
311.876
311.38
311.075
310.982
310.884
310.959
311.208
311.613
312.124
313.303
313.53
312.837
312.41
312
311.743
311.67
311.994
312.073
312.328
312.712
313.058
313.871
314.04
313.349
313.058
312.883
312.804
312.78
312.66
312.689
312.819
313.113
313.54
314.186
314.299
313.734
313.221
312.799
312.599
312.551
312.485
312.547
312.815
313.333
313.895
314.367
314.424
314.019
313.42
312.847
312.5
312.412
313.012
313.1
313.393
313.833
314.207
314.334
314.293
314.266
313.873
313.372
313.023
312.917
313.006
313.031
313.063
312.95
312.574
311.896
310.012
311.779
312.644
312.953
312.989
312.981
312.959
312.961
312.936
312.719
312.062
310.241
309.824
311.023
311.954
312.498
312.716
312.763
312.609
312.535
312.227
311.569
310.641
309.716
309.886
310.92
311.744
312.282
312.513
312.563
312.531
312.502
312.362
312.024
311.473
310.367
310.75
311.869
312.207
312.398
312.468
312.48
312.331
312.332
312.325
312.258
312.07
311.013
311.268
312.084
312.157
312.14
312.111
312.099
312.155
312.154
312.159
312.168
312.108
311.42
311.485
311.637
311.762
311.906
312.062
312.18
312.086
311.879
311.664
311.475
311.303
311.131
311.019
311.247
311.463
311.691
311.934
312.155
312.259
312.068
311.837
311.609
311.386
311.14
311.399
311.694
311.88
312.066
312.246
312.387
312.534
312.451
312.341
312.222
312.097
311.763
312.221
312.434
312.463
312.481
312.498
312.512
310.409
310.447
310.554
310.695
310.849
311.507
312.131
311.086
310.603
310.159
309.809
309.603
309.185
309.504
310.07
310.823
311.707
312.75
311.306
310.789
310.228
309.644
309.124
308.792
308.645
309.009
309.577
310.184
310.757
311.31
309.656
309.388
309.09
308.753
308.428
308.208
308.122
308.36
308.725
309.111
309.465
309.842
310.01
309.405
309.075
308.732
308.423
308.237
308.755
308.846
309.022
309.233
309.449
310.097
310.155
309.599
309.474
309.363
309.276
309.238
309.321
309.358
309.434
309.524
309.624
310.051
309.715
309.583
309.501
309.417
309.336
309.292
309.243
309.259
309.298
309.339
309.378
309.419
309.21
309.188
309.173
309.163
309.161
309.184
309.103
309.068
309.058
309.061
309.07
309.082
309.029
309.038
309.019
308.954
308.863
308.823
308.682
308.711
308.783
308.848
308.897
308.981
308.978
308.887
308.836
308.776
308.704
308.669
308.668
308.696
308.754
308.8
308.865
309.005
308.986
308.823
308.744
308.715
308.688
308.665
308.666
308.664
308.645
308.63
308.658
308.746
308.207
308.294
308.399
308.513
308.607
308.645
308.94
308.926
308.845
308.694
308.494
308.26
310.411
310.313
310.069
309.774
309.522
309.4
309.019
309.126
309.342
309.611
309.86
309.988
311.435
311.742
311.929
312.922
326.131
414.144
405.373
415.43
424.019
417.952
409.752
339.904
342.18
338.141
329.081
323.847
311.813
312.452
314.746
318.268
319.271
312.778
311.953
310.797
310.51
310.755
310.618
310.161
309.938
310.015
310.238
309.36
309.45
309.674
310.033
310.522
310.067
309.604
309.269
309.044
308.927
309.364
309.442
309.559
309.803
310.215
310.714
310.447
310.554
310.84
310.73
314.606
315.584
315.18
315.06
314.943
337.661
339.537
338.526
334.187
329.394
395.714
405.455
420.865
425.957
423.613
425.97
339.857
317.173
312.463
311.564
311.123
312.181
313.542
316.156
324.759
353.327
435.03
426.551
339.111
316.676
313.131
312.584
311.956
312.07
313.136
315.036
322.384
351.161
436.455
428.25
341.849
317.968
313.631
312.701
311.984
312.202
312.631
313.223
315.823
334.947
417.797
418.94
336.905
316.08
313.02
312.408
312.012
312.433
312.846
313.434
316.832
339.523
422.995
432.736
344.473
317.96
313.961
313.486
313.347
313.447
313.63
313.958
316.598
338.073
424.599
415.218
332.597
316.228
314.715
314.642
314.646
314.975
314.941
314.982
316.628
333.847
416.598
425.782
338.754
317.526
315.144
315.059
315.078
314.596
314.641
314.76
316.724
335.331
420.168
409.482
329.655
315.574
314.323
314.232
314.164
313.819
313.514
313.05
312.375
311.802
311.623
313.787
317.822
329.05
364.271
441.291
438.662
353.931
322.435
315.075
312.854
312.491
313.046
316.27
339.538
430.488
416.394
330.011
314.4
313.055
312.994
313.504
313.516
314.339
326.256
405.589
403.491
326.339
314.75
313.904
313.854
313.842
313.896
315.11
329.732
413.539
422.168
332.648
315.089
313.561
313.499
313.01
313.286
316.482
339.264
430.684
438.056
347.325
318.606
313.492
312.573
312.704
314.818
322.479
352.884
432.834
428.657
353.666
324.974
316.051
313.004
311.524
311.724
312.317
313.011
313.496
313.822
313.326
313.213
312.968
312.469
311.86
311.55
311.643
311.935
312.535
313.023
313.26
313.363
313.048
313.01
312.791
312.297
311.748
311.51
311.376
311.559
312.07
312.615
312.883
312.855
312.734
312.614
312.226
311.71
311.283
311.123
311.218
311.415
311.872
312.372
312.72
312.855
312.97
312.584
312.106
311.601
311.229
311.1
311.193
311.354
311.758
312.26
312.715
313.034
312.734
312.461
312.025
311.523
311.139
311.01
310.818
310.934
311.281
311.724
312.044
312.064
312.314
312.146
311.674
311.19
310.873
310.772
310.891
310.993
311.32
311.828
312.331
312.571
312.446
311.959
311.52
311.093
310.81
310.716
310.827
310.92
311.21
311.657
312.156
312.891
312.927
312.395
312.079
311.678
311.432
311.359
312.188
312.209
312.253
312.254
312.238
313.03
313.717
313.169
312.842
312.658
312.58
312.55
312.387
312.417
312.55
312.864
313.356
313.952
314.234
313.551
312.92
312.475
312.275
312.226
312.099
312.161
312.423
312.98
313.704
314.544
314.851
313.741
313.002
312.366
312.038
311.958
311.804
311.896
312.276
312.946
313.808
315.145
314.496
314.121
313.468
312.84
312.447
312.336
312.233
312.354
312.782
313.487
314.223
314.599
314.367
314.345
313.896
313.323
312.92
312.8
312.999
313.043
313.117
313.04
312.672
311.982
310.083
311.811
312.693
312.996
313.005
312.987
312.97
312.979
312.977
312.774
312.104
310.319
309.888
311.056
311.987
312.531
312.743
312.789
312.643
312.565
312.252
311.59
310.671
309.78
309.936
310.949
311.777
312.32
312.553
312.603
312.578
312.549
312.408
312.069
311.515
310.431
310.829
311.921
312.26
312.451
312.522
312.535
312.433
312.431
312.412
312.332
312.139
311.102
311.363
312.211
312.322
312.341
312.336
312.332
312.395
312.387
312.368
312.342
312.244
311.526
311.611
311.774
311.911
312.066
312.231
312.353
312.268
312.054
311.829
311.627
311.442
311.258
311.165
311.403
311.632
311.872
312.124
312.349
312.468
312.278
312.044
311.807
311.573
311.314
311.61
311.919
312.11
312.296
312.472
312.604
312.753
312.683
312.585
312.475
312.353
312.009
312.437
312.574
312.556
312.505
312.462
312.441
310.559
310.645
310.802
310.992
311.206
311.915
312.787
311.8
311.198
310.648
310.22
309.969
309.477
309.806
310.387
311.158
312.033
312.872
311.234
310.777
310.265
309.74
309.284
309.002
308.471
308.61
308.856
309.13
309.372
309.539
309.47
309.284
309.046
308.759
308.474
308.29
307.877
307.972
308.163
308.375
308.563
308.715
308.759
308.616
308.419
308.179
307.937
307.787
307.785
307.971
308.258
308.543
308.781
308.957
309.246
308.863
308.602
308.309
308.032
307.866
308.274
308.371
308.557
308.771
308.98
309.506
309.753
309.25
309.127
309.013
308.923
308.887
309.189
309.217
309.282
309.363
309.454
309.875
309.668
309.487
309.398
309.31
309.231
309.192
309.137
309.156
309.204
309.258
309.312
309.37
309.171
309.135
309.104
309.078
309.062
309.075
308.986
308.958
308.96
308.977
309.002
309.038
308.982
308.928
308.889
308.818
308.731
308.698
308.56
308.592
308.668
308.749
308.829
308.976
309.048
308.88
308.779
308.686
308.603
308.571
308.579
308.614
308.694
308.791
308.927
309.134
309.124
308.907
308.76
308.672
308.612
308.583
308.569
308.576
308.584
308.61
308.681
308.799
308.038
308.105
308.201
308.314
308.416
308.464
308.683
308.669
308.58
308.417
308.212
307.991
307.807
307.994
308.184
308.345
308.439
308.456
308.678
308.769
308.94
309.162
309.378
309.508
309.029
308.918
308.756
308.602
308.487
308.422
308.349
308.405
308.596
308.89
309.298
310.239
310.748
309.37
308.824
308.497
308.331
308.279
308.483
308.627
308.884
309.437
310.467
314.851
311.567
309.503
308.861
308.62
309.337
309.814
311.358
315.785
321.657
336.601
326.981
318.201
314.442
313.808
339.969
339.674
347.957
359.912
371.412
449.183
444.462
437.699
426.805
427.406
443.228
433.36
432.114
437.099
441.283
356.391
348.458
344.564
345.926
356.301
318.656
316.049
316.751
320.825
328.681
319.709
313.845
310.692
309.782
309.877
308.546
308.654
309.177
311.166
315.215
310.86
309.339
308.685
308.458
308.307
308.115
308.155
308.313
308.668
309.471
313.042
317.16
328.757
336.783
348.87
375.705
448.867
453.847
385.152
359.716
347.728
339.153
323.443
318.412
329.637
341.568
361.734
397.106
460.611
446.4
372.692
339.286
324.514
317.855
313.258
315.186
323.907
333.299
351.382
387.058
455.837
444.789
367.17
334.143
321.365
316.288
312.999
313.363
318.035
324.521
339.347
374.216
449.472
440.161
356.514
325.254
316.052
313.34
311.968
311.791
312.483
313.56
318.795
344.876
430.817
429.116
342.802
317.886
313.347
312.513
311.935
312.083
312.449
312.972
315.565
334.848
416.425
420.664
337.389
316.254
313.335
312.835
312.47
313.21
313.358
313.781
317.203
341.732
430.01
421.073
335.442
316.017
313.794
313.468
313.246
314.721
314.707
314.76
315.998
330.718
411.892
415.986
333.235
316.641
315.184
315.208
315.287
315.567
315.431
315.42
317.751
339.32
427.289
434.054
344.835
319.035
315.639
315.557
315.697
315.179
315.132
315.294
318.534
343.228
431.62
423.218
337.38
317.129
314.811
314.676
314.677
314.217
314.229
314.313
315.735
330.963
412.444
411.751
330.909
315.696
314.254
314.129
314.026
313.637
313.352
312.907
312.23
311.594
311.349
311.897
313.531
318.69
338.087
407.65
411.596
340.233
318.637
313.41
312.02
312.352
313.099
317.738
342.828
423.741
429.519
341.136
316.511
313.2
312.915
313.399
313.504
315.268
334.481
424.268
415.294
330.737
315.177
313.833
313.729
313.691
313.842
316.09
336.673
425.919
432.655
346.815
320.379
314.638
313.555
313.115
314.443
320.845
348.31
430.744
418.357
340.884
317.84
313.06
312.275
311.702
312.606
316.293
332.577
399.459
392.74
328.599
315.172
312.223
311.414
311.244
311.497
312.153
312.86
313.326
313.607
313.06
312.931
312.702
312.248
311.687
311.398
311.448
311.711
312.279
312.741
312.944
313.018
312.909
312.905
312.74
312.302
311.753
311.49
311.334
311.507
312.018
312.529
312.735
312.627
312.25
312.319
312.018
311.604
311.241
311.09
311.211
311.431
311.896
312.339
312.564
312.551
311.819
312.045
311.945
311.583
311.182
311.014
311.031
311.189
311.593
312
312.192
312.039
312.293
312.309
312.048
311.603
311.19