/*--------------------------------*- C++ -*----------------------------------*\
| =========                 |                                                 |
| \\      /  F ield         | OpenFOAM: The Open Source CFD Toolbox           |
|  \\    /   O peration     | Version:  2212                                  |
|   \\  /    A nd           | Website:  www.openfoam.com                      |
|    \\/     M anipulation  |                                                 |
\*---------------------------------------------------------------------------*/
FoamFile
{
    version     2.0;
    format      ascii;
    arch        "LSB;label=32;scalar=64";
    class       volScalarField;
    location    "330";
    object      p;
}
// * * * * * * * * * * * * * * * * * * * * * * * * * * * * * * * * * * * * * //

dimensions      [0 2 -2 0 0 0 0];

internalField   nonuniform List<scalar> 
248319
(
0
0.0192823
0.0402717
0.0499136
0.0579533
0.064656
0.0702498
0.109361
0.103296
0.0960223
0.0873
0.0768408
0.0510517
0.04984
0.0761428
0.0872762
0.0965725
0.104331
0.110801
0.0812627
0.0763929
0.0706045
0.0636767
0.0553507
0.0330984
0.0137239
0.0280108
0.0342234
0.0395233
0.0440879
0.0480617
0.0626236
0.0577859
0.0519883
0.0450496
0.0367411
0.0196825
-0.0539501
-0.0471939
-0.0434493
-0.0403256
-0.037705
-0.0355292
-0.0212286
-0.0246963
-0.0288549
-0.0338326
-0.039798
-0.0507594
-0.0555455
-0.0402181
-0.0334758
-0.0278608
-0.0231803
-0.0192637
0.0634675
0.057428
0.0501796
0.0414886
0.0310671
0.000543517
0.0309095
0.0593126
0.0692851
0.0775995
0.0845274
0.0903066
0.100137
0.0944897
0.0877146
0.0795876
0.0698439
0.0359029
0.0499519
0.074975
0.0847381
0.0928754
0.0996593
0.105314
0.10953
0.103006
0.0951851
0.0858086
0.0745691
0.0473154
0.0190798
0.039752
0.0463789
0.0519052
0.0565879
0.0606367
-0.0356265
-0.0383569
-0.0410872
-0.0438156
-0.0465459
-0.0535699
-0.0514988
-0.0438506
-0.0414619
-0.0392215
-0.0370835
-0.0350189
-0.14038
-0.14079
-0.14118
-0.141549
-0.141889
-0.145264
-0.144829
-0.141952
-0.140973
-0.140159
-0.139478
-0.138905
-0.132514
-0.133791
-0.135337
-0.137175
-0.139385
-0.144443
-0.145907
-0.139378
-0.136704
-0.134476
-0.132606
-0.131065
-0.133985
-0.135623
-0.137601
-0.139961
-0.142806
-0.150191
-0.0695787
-0.052576
-0.0457556
-0.04007
-0.0353368
-0.0313745
0.0473177
0.0406974
0.0327566
0.0232257
0.0117991
-0.0194626
-0.00915968
0.0315412
0.0452775
0.0567308
0.0662815
0.074244
0.090175
0.0833697
0.0752089
0.0654174
0.0536744
0.0104132
0.00965305
0.0523123
0.0641502
0.074017
0.0822403
0.0890965
0.097878
0.0922968
0.0855998
0.0775629
0.0679208
0.0344781
0.0489423
0.0735203
0.0833187
0.0914829
0.0982862
0.103953
0.109476
0.102781
0.094754
0.0851311
0.0735944
0.0456351
0.0147862
0.0354126
0.0421981
0.0479111
0.0527928
0.0570391
-0.0392359
-0.041952
-0.0446701
-0.0473884
-0.0501095
-0.0586936
-0.147625
-0.143317
-0.142598
-0.141879
-0.141161
-0.140443
-0.139439
-0.140143
-0.140842
-0.141542
-0.142241
-0.146189
-0.244006
-0.242357
-0.242283
-0.24221
-0.242137
-0.242062
-0.242965
-0.242953
-0.242919
-0.242859
-0.242762
-0.24376
-0.243302
-0.242399
-0.242274
-0.242167
-0.242083
-0.242015
-0.238681
-0.239003
-0.239384
-0.23985
-0.240401
-0.242614
-0.242869
-0.239816
-0.239096
-0.238493
-0.237994
-0.237567
-0.238124
-0.238592
-0.239156
-0.239824
-0.240625
-0.244231
-0.245659
-0.241498
-0.240521
-0.239712
-0.239028
-0.238469
-0.136211
-0.138055
-0.140272
-0.142928
-0.146117
-0.154316
-0.0773877
-0.0596715
-0.0525176
-0.0465521
-0.041587
-0.0374408
0.034226
0.0274487
0.0193147
0.00955045
-0.00215141
-0.0328381
-0.0252806
0.0126357
0.0266671
0.0383662
0.0481196
0.0562472
0.0568204
0.0485527
0.0386295
0.0267256
0.0124448
-0.0247347
-0.0091352
0.0306832
0.0447048
0.0563912
0.0661336
0.0742546
0.0739236
0.0657218
0.0558807
0.0440748
0.0299053
-0.00976573
0.00871979
0.0514064
0.0634061
0.0734034
0.0817359
0.0886807
0.0975728
0.0919133
0.0851241
0.0769755
0.067199
0.0335526
0.0480707
0.0729837
0.0829121
0.0911852
0.0980805
0.103824
0.109424
0.102618
0.0944554
0.0846698
0.072937
0.0445319
0.01329
0.0339982
0.040971
0.0468578
0.0518979
0.0562848
-0.0407182
-0.0434415
-0.0461643
-0.0488872
-0.0516117
-0.0603984
-0.148688
-0.144131
-0.143455
-0.142779
-0.142104
-0.141429
-0.24272
-0.242795
-0.242872
-0.242949
-0.243026
-0.245116
-0.244495
-0.24247
-0.242397
-0.242325
-0.242253
-0.242179
-0.343433
-0.343431
-0.343429
-0.343428
-0.343425
-0.344207
-0.343971
-0.343403
-0.343424
-0.343445
-0.343466
-0.343486
-0.344217
-0.344165
-0.344101
-0.344023
-0.343928
-0.344018
-0.343698
-0.343606
-0.34366
-0.343711
-0.343752
-0.343786
-0.341968
-0.342015
-0.342067
-0.342136
-0.342217
-0.343044
-0.342999
-0.341742
-0.341613
-0.3415
-0.341412
-0.341345
-0.341484
-0.341566
-0.341676
-0.34181
-0.341962
-0.343488
-0.343961
-0.342142
-0.341954
-0.341789
-0.341658
-0.341545
-0.340746
-0.34094
-0.341156
-0.341427
-0.341748
-0.344
-0.24604
-0.24107
-0.239691
-0.238546
-0.237583
-0.236796
-0.134491
-0.136809
-0.139597
-0.142937
-0.14694
-0.156203
-0.0818181
-0.0632955
-0.0553293
-0.0486857
-0.0431637
-0.0385416
0.0239906
0.0175116
0.00973432
0.000402383
-0.0107829
-0.0404925
-0.0341679
0.00128485
0.0136002
0.0238692
0.0324297
0.0395632
0.0405649
0.0333934
0.0247881
0.014464
0.00207941
-0.0330938
-0.0329153
0.00218781
0.0145595
0.0248711
0.0334662
0.0406273
0.056718
0.0484145
0.0384501
0.0264973
0.0121545
-0.0248823
-0.0250541
0.0120402
0.0263835
0.0383353
0.0482959
0.0565952
0.0737269
0.0655138
0.0556578
0.0438283
0.0296362
-0.0101177
0.00826951
0.0511096
0.0631461
0.0731714
0.0815301
0.0884932
0.0974469
0.091768
0.0849566
0.0767807
0.0669666
0.0331433
0.0476856
0.0727807
0.0827509
0.0910572
0.0979801
0.103747
0.10938
0.102528
0.0943107
0.0844584
0.0726472
0.0440624
0.0127347
0.0335588
0.0406004
0.0465465
0.0516387
0.0560671
-0.041202
-0.0439211
-0.0466394
-0.0493583
-0.0520789
-0.0610068
-0.149296
-0.144732
-0.144052
-0.143372
-0.142691
-0.142012
-0.243183
-0.243259
-0.243337
-0.243414
-0.24349
-0.24557
-0.344869
-0.344042
-0.344042
-0.344042
-0.344041
-0.344041
-0.343719
-0.343719
-0.343719
-0.34372
-0.34372
-0.344557
-0.444343
-0.444015
-0.444015
-0.444014
-0.444014
-0.444014
-0.443847
-0.443847
-0.443846
-0.443845
-0.443844
-0.444132
-0.444036
-0.443878
-0.443892
-0.443905
-0.443919
-0.443931
-0.444483
-0.444453
-0.444414
-0.444368
-0.444313
-0.444166
-0.444032
-0.44417
-0.444229
-0.444282
-0.444328
-0.444361
-0.443428
-0.443428
-0.443422
-0.443416
-0.443411
-0.443669
-0.443748
-0.443301
-0.443298
-0.443283
-0.44328
-0.443264
-0.443621
-0.443643
-0.44364
-0.443661
-0.443677
-0.444189
-0.444753
-0.444211
-0.444176
-0.44416
-0.44415
-0.444127
-0.444412
-0.444437
-0.444473
-0.444509
-0.444564
-0.445189
-0.445387
-0.444563
-0.444447
-0.444344
-0.444269
-0.444205
-0.338864
-0.339231
-0.339652
-0.340166
-0.340781
-0.343675
-0.245825
-0.239634
-0.237452
-0.235633
-0.234106
-0.232846
-0.124284
-0.127536
-0.13145
-0.136145
-0.141782
-0.15468
-0.0824883
-0.0606122
-0.0513374
-0.0436024
-0.037171
-0.0317852
0.0161955
0.0099919
0.00254952
-0.0063801
-0.0170908
-0.0445831
-0.0406988
-0.0115059
-0.00119792
0.00739849
0.0145604
0.020534
0.0212611
0.015341
0.00823992
-0.00028298
-0.0105051
-0.0395445
-0.0393244
-0.0103403
-0.000140696
0.00836135
0.0154451
0.0213516
0.0213248
0.0154213
0.00834573
-0.000149341
-0.010347
-0.0393609
-0.0329722
0.0021767
0.0145382
0.0248407
0.0334235
0.040576
0.0405245
0.0333727
0.0247929
0.0144923
0.00213174
-0.0330706
-0.0251886
0.0119657
0.0263076
0.0382589
0.0482171
0.0565143
0.0736275
0.0654119
0.0555532
0.0437207
0.0295256
-0.0103017
0.00807305
0.0510026
0.063044
0.073076
0.0814398
0.0884076
0.0973908
0.0917093
0.0848917
0.0767106
0.0668921
0.032992
0.0475527
0.0727177
0.0826981
0.0910131
0.0979435
0.103717
0.109368
0.1025
0.094264
0.084388
0.0725496
0.0439178
0.0125782
0.0335084
0.04059
0.0465701
0.0516882
0.0561339
-0.0413577
-0.0440863
-0.0468141
-0.0495417
-0.0522706
-0.0612255
-0.149558
-0.145001
-0.144319
-0.143638
-0.142955
-0.142271
-0.243457
-0.243535
-0.243612
-0.243688
-0.243766
-0.245825
-0.34509
-0.344285
-0.344285
-0.344285
-0.344284
-0.344284
-0.444457
-0.444457
-0.444458
-0.444458
-0.444459
-0.444762
-0.444569
-0.444248
-0.444247
-0.444247
-0.444247
-0.444247
-0.543822
-0.543823
-0.543823
-0.543824
-0.543824
-0.543961
-0.543771
-0.543628
-0.543627
-0.543627
-0.543626
-0.543626
-0.543502
-0.543502
-0.543503
-0.543502
-0.543502
-0.543626
-0.543586
-0.543537
-0.543544
-0.54355
-0.543556
-0.543562
-0.543939
-0.543923
-0.543904
-0.543879
-0.543851
-0.543719
-0.543737
-0.54388
-0.543919
-0.543946
-0.543965
-0.543997
-0.543659
-0.543643
-0.543653
-0.543639
-0.543632
-0.543676
-0.543993
-0.543902
-0.543896
-0.543912
-0.543893
-0.543901
-0.54464
-0.544631
-0.544651
-0.54464
-0.544645
-0.544681
-0.545677
-0.545755
-0.545755
-0.545758
-0.545747
-0.545751
-0.547079
-0.547083
-0.547088
-0.547089
-0.547096
-0.546877
-0.548133
-0.548471
-0.548444
-0.548439
-0.548419
-0.548408
-0.5493
-0.549323
-0.549364
-0.549398
-0.549448
-0.549084
-0.445326
-0.444126
-0.443852
-0.443626
-0.443441
-0.443283
-0.336049
-0.336708
-0.337479
-0.338414
-0.33954
-0.343301
-0.246645
-0.238946
-0.23563
-0.232863
-0.230548
-0.228627
-0.121734
-0.125773
-0.130639
-0.136476
-0.143479
-0.159699
-0.109573
-0.0814968
-0.0711798
-0.0625738
-0.0554014
-0.0494188
-0.0144909
-0.0204129
-0.0275061
-0.0360227
-0.0462353
-0.0736289
-0.0681626
-0.0358127
-0.0257614
-0.0173834
-0.0103949
-0.00456633
-0.00459767
-0.0104161
-0.0173901
-0.0257574
-0.0358026
-0.0676289
-0.0675485
-0.0358226
-0.0257772
-0.0174067
-0.0104312
-0.0046165
-0.00466641
-0.0104793
-0.0174569
-0.025824
-0.0358677
-0.0676199
-0.0677129
-0.0359263
-0.025877
-0.0175043
-0.0105267
-0.00471096
0.0212852
0.0153818
0.00830392
-0.000193372
-0.0103933
-0.0394418
-0.0395054
-0.0104335
-0.000232367
0.00826916
0.015352
0.0212551
0.0404932
0.033339
0.0247549
0.0144535
0.00209117
-0.0331413
-0.0252662
0.0119232
0.0262637
0.0382143
0.048173
0.0564722
0.0735792
0.0653637
0.0555052
0.0436749
0.029481
-0.0103849
0.00800154
0.0509657
0.0630061
0.0730396
0.0814036
0.0883711
0.0973702
0.0916874
0.0848687
0.076688
0.0668737
0.0329519
0.0475221
0.0727034
0.0826834
0.0909993
0.0979299
0.103705
0.10936
0.10249
0.0942509
0.0843711
0.07253
0.0438874
0.0125465
0.0335015
0.0405871
0.0465693
0.0516904
0.0561373
-0.0413863
-0.0441176
-0.0468463
-0.0495747
-0.0523057
-0.061268
-0.149642
-0.145093
-0.14441
-0.143727
-0.143046
-0.142363
-0.243588
-0.243665
-0.243741
-0.243819
-0.243897
-0.24594
-0.345221
-0.344431
-0.344431
-0.34443
-0.34443
-0.34443
-0.444624
-0.444624
-0.444624
-0.444625
-0.444626
-0.444915
-0.544376
-0.544269
-0.544268
-0.544268
-0.544267
-0.544267
-0.544041
-0.544041
-0.544042
-0.544042
-0.544043
-0.544164
-0.643273
-0.643232
-0.643231
-0.64323
-0.64323
-0.64323
-0.642938
-0.642938
-0.642939
-0.642939
-0.64294
-0.643
-0.642794
-0.642724
-0.642723
-0.642723
-0.642722
-0.642722
-0.642594
-0.642594
-0.642594
-0.642595
-0.642596
-0.642662
-0.642634
-0.642603
-0.642605
-0.642606
-0.642607
-0.64261
-0.642845
-0.642837
-0.642831
-0.642823
-0.642811
-0.642737
-0.64285
-0.642948
-0.642958
-0.642971
-0.642991
-0.642991
-0.643035
-0.643043
-0.643032
-0.643034
-0.643032
-0.643005
-0.643525
-0.643578
-0.643584
-0.64358
-0.64358
-0.64358
-0.644652
-0.644657
-0.644648
-0.644659
-0.64465
-0.644475
-0.645913
-0.646297
-0.6463
-0.646289
-0.646298
-0.646293
-0.648505
-0.648507
-0.648512
-0.648515
-0.648512
-0.647862
-0.650227
-0.651172
-0.651176
-0.651171
-0.651163
-0.651166
-0.653657
-0.653658
-0.653666
-0.653671
-0.653675
-0.65252
-0.653233
-0.654546
-0.65452
-0.654511
-0.654489
-0.654485
-0.548947
-0.54902
-0.5491
-0.549192
-0.549307
-0.54908
-0.445051
-0.443209
-0.442638
-0.442161
-0.441764
-0.441441
-0.332393
-0.333547
-0.334897
-0.336535
-0.338503
-0.343567
-0.247287
-0.235362
-0.230321
-0.226118
-0.222599
-0.219693
-0.125678
-0.130335
-0.13592
-0.142622
-0.150659
-0.170127
-0.126762
-0.0995747
-0.0890682
-0.080308
-0.0730054
-0.0669193
-0.05535
-0.0619178
-0.0698069
-0.0792649
-0.0906134
-0.121096
-0.102529
-0.0664791
-0.0549369
-0.0453117
-0.0372901
-0.0306003
-0.0307574
-0.03741
-0.0453927
-0.0549689
-0.0664585
-0.101792
-0.101682
-0.0665621
-0.0550724
-0.0454943
-0.0375111
-0.0308594
-0.0309385
-0.037591
-0.0455755
-0.0551535
-0.0666471
-0.101739
-0.10183
-0.0667106
-0.0552121
-0.0456337
-0.0376464
-0.0309914
-0.0310233
-0.0376781
-0.0456677
-0.055251
-0.0667547
-0.1019
-0.0677796
-0.0359692
-0.0259149
-0.0175372
-0.0105574
-0.00473854
-0.00475
-0.0105723
-0.0175542
-0.0259372
-0.0359914
-0.067819
-0.0395421
-0.010455
-0.000251421
0.00824816
0.0153358
0.0212382
0.0404765
0.0333203
0.0247349
0.0144316
0.00206629
-0.0331836
-0.0253068
0.0118997
0.026242
0.0381934
0.048154
0.0564511
0.0735599
0.0653449
0.0554865
0.0436563
0.0294629
-0.0104175
0.00798268
0.0509559
0.0629943
0.0730276
0.0813913
0.0883566
0.0973633
0.0916805
0.0848644
0.0766852
0.0668702
0.0329496
0.047524
0.0727006
0.0826813
0.0909979
0.0979267
0.103701
0.109359
0.102488
0.0942485
0.0843683
0.0725266
0.043897
0.012569
0.0335355
0.0406275
0.0466133
0.0517356
0.0561845
-0.0413725
-0.044102
-0.0468303
-0.0495611
-0.0522929
-0.0612556
-0.149654
-0.145112
-0.144429
-0.143745
-0.143061
-0.14238
-0.243638
-0.243714
-0.243791
-0.24387
-0.243947
-0.245982
-0.345297
-0.344516
-0.344515
-0.344515
-0.344514
-0.344514
-0.444762
-0.444762
-0.444762
-0.444763
-0.444764
-0.445043
-0.544606
-0.544516
-0.544515
-0.544514
-0.544513
-0.544513
-0.644087
-0.644087
-0.644088
-0.64409
-0.644091
-0.64407
-0.643628
-0.643613
-0.643611
-0.64361
-0.643609
-0.643609
-0.742925
-0.742926
-0.742928
-0.74293
-0.742933
-0.742869
-0.742233
-0.742247
-0.742245
-0.742243
-0.742242
-0.742241
-0.741777
-0.741778
-0.741778
-0.741779
-0.74178
-0.741798
-0.741517
-0.74148
-0.741479
-0.741479
-0.741478
-0.741478
-0.741308
-0.741309
-0.741309
-0.74131
-0.741311
-0.741354
-0.741306
-0.741272
-0.741271
-0.74127
-0.741272
-0.741271
-0.741379
-0.741379
-0.741379
-0.741379
-0.741379
-0.741364
-0.741513
-0.741557
-0.741559
-0.741561
-0.741564
-0.741566
-0.741843
-0.741843
-0.741842
-0.741841
-0.741841
-0.741792
-0.742427
-0.742547
-0.742544
-0.74254
-0.742549
-0.742544
-0.743802
-0.743796
-0.743796
-0.743793
-0.743803
-0.743527
-0.74523
-0.745743
-0.745736
-0.745748
-0.745739
-0.745745
-0.748501
-0.7485
-0.748504
-0.748496
-0.7485
-0.747651
-0.750767
-0.752046
-0.752042
-0.752042
-0.752043
-0.752043
-0.755836
-0.75585
-0.755833
-0.755846
-0.755845
-0.754166
-0.757033
-0.758324
-0.758324
-0.75831
-0.758324
-0.758309
-0.752364
-0.752369
-0.752368
-0.752385
-0.752386
-0.75093
-0.650135
-0.651445
-0.651388
-0.651354
-0.651311
-0.651293
-0.546531
-0.546706
-0.546884
-0.547103
-0.547377
-0.547571
-0.4446
-0.441798
-0.440722
-0.439825
-0.439074
-0.438461
-0.328987
-0.330794
-0.332951
-0.335551
-0.338662
-0.345481
-0.255369
-0.239724
-0.233212
-0.227783
-0.223252
-0.219483
-0.140952
-0.146834
-0.153877
-0.162338
-0.172475
-0.20128
-0.161016
-0.133933
-0.12384
-0.11542
-0.108399
-0.10254
-0.0845196
-0.0909486
-0.0986575
-0.107904
-0.118991
-0.15327
-0.15203
-0.118424
-0.107527
-0.0984413
-0.0908698
-0.0845575
-0.0556997
-0.0621157
-0.0698227
-0.0790655
-0.0901549
-0.1199
-0.119722
-0.0901952
-0.0791338
-0.0699146
-0.062232
-0.0558309
-0.0559295
-0.0623292
-0.0700075
-0.079224
-0.0902806
-0.119787
-0.119878
-0.0903534
-0.0792935
-0.0700746
-0.0623916
-0.0559922
-0.0560279
-0.0624294
-0.0701151
-0.079339
-0.0904041
-0.119948
-0.119989
-0.0904303
-0.079364
-0.0701358
-0.0624498
-0.0560431
-0.031037
-0.0376916
-0.0456837
-0.0552696
-0.0667783
-0.101942
-0.101963
-0.0667841
-0.0552747
-0.0456887
-0.0376966
-0.0310365
-0.0047559
-0.0105739
-0.0175589
-0.025942
-0.0359986
-0.0678394
-0.0395598
-0.0104625
-0.000256743
0.00824509
0.0153304
0.0212361
0.0404703
0.0333153
0.0247265
0.0144224
0.00205559
-0.0332058
-0.0253281
0.011889
0.0262325
0.0381832
0.0481443
0.0564434
0.0735535
0.0653384
0.0554783
0.0436521
0.0294575
-0.0104304
0.00797962
0.0509556
0.062994
0.0730246
0.0813865
0.0883536
0.0973609
0.09168
0.0848659
0.0766878
0.066873
0.0329557
0.0475292
0.0727024
0.0826833
0.0909986
0.0979279
0.103701
0.109356
0.102485
0.0942463
0.0843675
0.0725259
0.043901
0.0125809
0.0335432
0.0406343
0.0466213
0.0517408
0.0561874
-0.0413512
-0.0440805
-0.0468098
-0.0495407
-0.052274
-0.0612344
-0.149645
-0.145106
-0.144423
-0.143738
-0.143053
-0.142371
-0.243657
-0.243733
-0.243812
-0.243891
-0.243968
-0.245998
-0.34535
-0.344573
-0.344572
-0.344572
-0.344571
-0.344571
-0.444884
-0.444884
-0.444884
-0.444885
-0.444886
-0.445157
-0.544848
-0.544781
-0.54478
-0.54478
-0.544779
-0.544779
-0.644641
-0.644642
-0.644642
-0.644644
-0.644645
-0.644573
-0.744739
-0.744999
-0.744997
-0.744996
-0.744994
-0.744993
-0.743865
-0.743866
-0.743868
-0.74387
-0.743873
-0.743724
-0.843922
-0.844272
-0.84427
-0.844268
-0.844266
-0.844265
-0.842503
-0.842504
-0.842506
-0.842509
-0.842513
-0.842336
-0.841204
-0.841274
-0.84127
-0.841267
-0.841265
-0.841265
-0.840493
-0.840493
-0.840495
-0.840497
-0.840499
-0.840485
-0.840062
-0.840048
-0.840047
-0.840047
-0.840046
-0.840046
-0.839798
-0.839798
-0.839799
-0.839799
-0.8398
-0.839829
-0.83974
-0.839703
-0.839701
-0.8397
-0.839698
-0.839696
-0.839712
-0.839716
-0.839721
-0.839724
-0.83973
-0.839748
-0.839896
-0.839902
-0.839902
-0.839895
-0.839892
-0.83989
-0.840251
-0.840255
-0.840247
-0.840251
-0.840253
-0.840206
-0.840842
-0.840974
-0.840967
-0.84097
-0.840975
-0.84097
-0.842204
-0.842203
-0.842212
-0.8422
-0.842207
-0.841924
-0.843618
-0.844138
-0.844138
-0.844138
-0.844139
-0.844134
-0.846951
-0.846965
-0.846951
-0.846958
-0.846961
-0.846081
-0.84932
-0.850718
-0.850708
-0.85071
-0.850718
-0.850711
-0.855017
-0.855006
-0.855012
-0.855003
-0.855015
-0.852873
-0.856065
-0.858699
-0.858695
-0.858694
-0.858693
-0.858695
-0.859279
-0.859283
-0.85928
-0.859283
-0.859281
-0.858053
-0.901254
-0.901664
-0.901652
-0.901643
-0.901632
-0.901625
-0.925129
-0.933812
-0.941051
-0.947086
-0.952114
-0.952112
-0.947084
-0.941054
-0.93382
-0.925142
-0.925153
-0.93383
-0.941065
-0.94709
-0.952106
-0.952107
-0.947085
-0.941064
-0.933835
-0.92517
-0.925186
-0.933847
-0.941073
-0.94708
-0.952099
-0.952255
-0.94709
-0.940898
-0.933462
-0.924542
-0.925761
-0.934465
-0.941724
-0.947766
-0.952805
-0.909944
-0.90351
-0.895789
-0.886522
-0.8754
-0.848815
-0.805076
-0.838033
-0.851597
-0.862903
-0.872323
-0.880171
-0.880015
-0.872002
-0.862379
-0.850835
-0.83698
-0.837526
-0.851194
-0.862584
-0.872076
-0.879983
-0.879999
-0.872089
-0.862593
-0.851197
-0.837523
-0.837524
-0.851205
-0.8626
-0.872097
-0.880012
-0.88003
-0.872109
-0.862607
-0.851204
-0.837524
-0.837521
-0.851205
-0.86261
-0.872115
-0.880033
-0.8653
-0.856811
-0.846623
-0.834397
-0.819724
-0.819726
-0.834394
-0.846618
-0.856805
-0.865292
-0.865283
-0.856797
-0.846612
-0.83439
-0.819726
-0.819722
-0.834385
-0.846604
-0.856784
-0.865269
-0.865253
-0.856773
-0.846595
-0.834379
-0.819722
-0.818239
-0.833329
-0.845905
-0.856381
-0.865108
-0.865061
-0.85623
-0.845629
-0.832905
-0.817637
-0.782412
-0.782346
-0.782417
-0.782402
-0.782383
-0.782365
-0.782361
-0.718838
-0.718895
-0.718941
-0.71901
-0.719088
-0.717996
-0.636459
-0.636858
-0.636482
-0.636183
-0.635914
-0.635706
-0.53632
-0.537033
-0.537863
-0.538887
-0.540095
-0.542435
-0.446169
-0.439743
-0.436584
-0.433958
-0.431753
-0.429928
-0.321627
-0.325333
-0.329765
-0.335093
-0.341477
-0.356631
-0.302168
-0.273999
-0.264396
-0.256396
-0.249721
-0.244159
-0.204071
-0.209653
-0.216363
-0.224405
-0.234044
-0.260248
-0.222135
-0.195119
-0.185133
-0.176804
-0.169863
-0.164076
-0.150272
-0.156534
-0.164041
-0.173048
-0.183853
-0.214792
-0.191916
-0.153458
-0.141735
-0.131962
-0.123816
-0.117025
-0.116787
-0.123474
-0.13149
-0.141112
-0.152655
-0.190291
-0.189923
-0.152606
-0.141097
-0.131503
-0.123515
-0.116848
-0.0846801
-0.0909784
-0.0985394
-0.107613
-0.118494
-0.151851
-0.1519
-0.118578
-0.1077
-0.0986344
-0.0910785
-0.084787
-0.0848546
-0.0911494
-0.0987077
-0.107777
-0.118662
-0.151998
-0.152073
-0.118716
-0.107826
-0.098754
-0.0911932
-0.0848964
-0.0849143
-0.0912138
-0.0987803
-0.107852
-0.118747
-0.15212
-0.152147
-0.118762
-0.107866
-0.098792
-0.0912235
-0.0849203
-0.0560482
-0.0624576
-0.0701459
-0.0793741
-0.0904426
-0.120011
-0.120019
-0.0904454
-0.0793733
-0.0701464
-0.0624558
-0.0560464
-0.0310325
-0.0376925
-0.0456847
-0.0552753
-0.0667832
-0.10197
-0.0678423
-0.0359978
-0.0259385
-0.0175581
-0.0105705
-0.0047525
0.0212385
0.0153328
0.00824735
-0.00025659
-0.0104611
-0.039564
-0.0332143
0.00205341
0.0144206
0.024725
0.0333158
0.0404715
0.0564445
0.0481413
0.0381804
0.0262313
0.0118876
-0.0253357
-0.0104334
0.0294596
0.0436542
0.0554798
0.0653357
0.0735509
0.0883508
0.0813861
0.0730268
0.0629961
0.0509582
0.00798185
0.0329613
0.066877
0.0766882
0.0848657
0.0916806
0.0973586
0.103701
0.0979267
0.0909965
0.0826835
0.0727062
0.047535
0.0439079
0.0725282
0.0843677
0.094244
0.102481
0.109352
0.0561987
0.0517525
0.0466323
0.0406459
0.0335553
0.012595
-0.061218
-0.0522588
-0.0495263
-0.0467967
-0.0440649
-0.0413345
-0.142363
-0.143046
-0.143729
-0.144412
-0.145097
-0.149636
-0.246007
-0.243976
-0.243898
-0.243821
-0.243743
-0.243666
-0.344613
-0.344613
-0.344614
-0.344614
-0.344615
-0.345387
-0.445259
-0.444996
-0.444995
-0.444995
-0.444995
-0.444994
-0.545036
-0.545036
-0.545036
-0.545037
-0.545037
-0.545082
-0.645077
-0.645203
-0.645202
-0.645201
-0.6452
-0.645199
-0.746165
-0.746166
-0.746167
-0.746168
-0.74617
-0.745784
-0.847925
-0.8488
-0.848799
-0.848799
-0.848798
-0.848798
-0.846457
-0.846458
-0.846459
-0.84646
-0.846462
-0.845868
-0.94842
-0.949602
-0.949603
-0.949603
-0.949602
-0.949602
-0.945573
-0.945573
-0.945574
-0.945575
-0.945576
-0.944892
-0.94216
-0.94251
-0.942507
-0.942505
-0.942503
-0.942502
-0.940434
-0.940434
-0.940437
-0.94044
-0.940444
-0.940293
-0.939148
-0.939198
-0.939195
-0.939192
-0.93919
-0.93919
-0.938515
-0.938515
-0.938516
-0.938517
-0.938519
-0.938514
-0.938181
-0.938163
-0.938162
-0.938161
-0.93816
-0.93816
-0.93799
-0.937994
-0.937996
-0.937997
-0.938
-0.938033
-0.937991
-0.937959
-0.937952
-0.937946
-0.93794
-0.937935
-0.938071
-0.938074
-0.938078
-0.938084
-0.938095
-0.938103
-0.938375
-0.938408
-0.938402
-0.938402
-0.938402
-0.938402
-0.939009
-0.939008
-0.939009
-0.939012
-0.939009
-0.938906
-0.939801
-0.940025
-0.940034
-0.940023
-0.940032
-0.940027
-0.941638
-0.941632
-0.941633
-0.941636
-0.941637
-0.941214
-0.9433
-0.944024
-0.944023
-0.944024
-0.944011
-0.944027
-0.947277
-0.947273
-0.947283
-0.947285
-0.947277
-0.946067
-0.949133
-0.951279
-0.951283
-0.951285
-0.951275
-0.951277
-0.955727
-0.955713
-0.955726
-0.955722
-0.95572
-0.951673
-0.96777
-0.985695
-0.991839
-0.99696
-1.00123
-1.00478
-1.00422
-1.00421
-1.00421
-1.00421
-1.00421
-1.0007
-1.00071
-1.00071
-1.00072
-1.00073
-0.996526
-0.99652
-0.99651
-0.996503
-0.996494
-0.991439
-0.991451
-0.991462
-0.991483
-0.991501
-0.985459
-0.985429
-0.985406
-0.985392
-0.985371
-0.969977
-0.969979
-0.969998
-0.970011
-0.970026
-1.05321
-1.05319
-1.05318
-1.05317
-1.05315
-1.05717
-1.05718
-1.05721
-1.05723
-1.05726
-1.05972
-1.0597
-1.05968
-1.05966
-1.05965
-1.06172
-1.06172
-1.06174
-1.06175
-1.06177
-1.06347
-1.06346
-1.06345
-1.06344
-1.06344
-1.06487
-1.06488
-1.06487
-1.06489
-1.06489
-1.06535
-1.06389
-1.06212
-1.06
-1.05746
-1.05288
-1.05263
-1.05804
-1.06063
-1.06279
-1.06458
-1.06607
-1.00588
-1.0024
-0.998217
-0.993199
-0.987176
-0.965468
-0.902064
-0.904983
-0.929559
-0.937318
-0.943788
-0.949176
-0.953659
-0.910425
-0.904656
-0.897734
-0.889429
-0.879463
-0.851473
-0.807359
-0.841172
-0.853834
-0.864388
-0.873178
-0.880506
-0.865276
-0.85676
-0.84654
-0.834276
-0.819557
-0.784424
-0.783341
-0.818598
-0.833634
-0.846163
-0.856603
-0.865299
-0.865129
-0.856117
-0.845297
-0.83231
-0.816726
-0.781285
-0.780845
-0.817166
-0.832633
-0.845522
-0.856257
-0.865204
-0.865347
-0.86536
-0.865371
-0.865376
-0.865382
-0.856633
-0.856629
-0.856625
-0.856618
-0.856609
-0.846124
-0.846127
-0.846129
-0.846129
-0.846131
-0.833527
-0.833529
-0.833534
-0.833536
-0.833537
-0.818438
-0.818427
-0.818421
-0.818409
-0.818402
-0.78037
-0.7804
-0.780435
-0.780488
-0.78054
-0.716464
-0.716193
-0.715963
-0.715777
-0.715614
-0.630734
-0.631263
-0.631905
-0.632655
-0.633576
-0.634431
-0.54166
-0.537049
-0.534661
-0.532664
-0.531017
-0.52962
-0.420813
-0.423741
-0.427276
-0.431519
-0.436594
-0.447964
-0.370554
-0.352059
-0.34456
-0.338315
-0.333101
-0.328751
-0.270602
-0.275943
-0.282353
-0.290041
-0.299265
-0.325133
-0.317671
-0.288009
-0.278407
-0.270401
-0.26373
-0.258168
-0.220283
-0.226559
-0.23409
-0.243126
-0.253961
-0.292178
-0.251779
-0.218294
-0.207732
-0.198921
-0.191573
-0.185451
-0.184879
-0.190855
-0.198019
-0.206618
-0.216928
-0.249838
-0.212904
-0.182765
-0.172269
-0.163525
-0.156229
-0.150153
-0.150127
-0.156171
-0.16342
-0.172113
-0.182551
-0.212411
-0.212352
-0.182554
-0.172133
-0.16345
-0.156215
-0.150178
-0.116937
-0.123592
-0.131577
-0.141159
-0.15266
-0.189901
-0.189979
-0.15273
-0.141229
-0.131644
-0.123659
-0.117001
-0.117043
-0.123705
-0.131692
-0.141281
-0.152783
-0.190051
-0.190102
-0.152817
-0.141312
-0.13172
-0.123728
-0.117069
-0.117079
-0.123739
-0.131735
-0.141326
-0.152836
-0.19013
-0.190143
-0.152843
-0.141331
-0.131737
-0.123741
-0.117082
-0.0849197
-0.0912231
-0.0987913
-0.107871
-0.118764
-0.152157
-0.152161
-0.118763
-0.107867
-0.0987849
-0.0912191
-0.084914
-0.0560392
-0.0624487
-0.0701416
-0.0793691
-0.0904434
-0.120021
-0.101969
-0.0667784
-0.05527
-0.045677
-0.0376822
-0.0310253
-0.00474252
-0.0105677
-0.0175517
-0.0259348
-0.0359944
-0.0678416
-0.0395626
-0.010456
-0.00025052
0.00825131
0.0153416
0.021244
0.0404772
0.0333194
0.0247298
0.0144258
0.00205676
-0.0332146
-0.0253361
0.0118889
0.0262335
0.0381835
0.0481426
0.0564473
0.0735493
0.0653361
0.0554827
0.0436553
0.0294618
-0.0104338
0.00798227
0.0509609
0.0629971
0.0730292
0.0813865
0.0883507
0.097357
0.0916801
0.0848642
0.0766878
0.0668779
0.0329651
0.0475406
0.0727069
0.0826831
0.0909973
0.0979261
0.103699
0.109349
0.10248
0.0942435
0.0843671
0.0725277
0.0439109
0.0126007
0.0335558
0.0406467
0.0466328
0.0517526
0.0561996
-0.0413274
-0.0440565
-0.0467875
-0.0495184
-0.0522499
-0.0612075
-0.149632
-0.145092
-0.144407
-0.143723
-0.14304
-0.142356
-0.243673
-0.24375
-0.243827
-0.243904
-0.243984
-0.246013
-0.345418
-0.344648
-0.344647
-0.344646
-0.344646
-0.344646
-0.445085
-0.445086
-0.445086
-0.445086
-0.445087
-0.445341
-0.545274
-0.545248
-0.545247
-0.545247
-0.545247
-0.545246
-0.64567
-0.645671
-0.645671
-0.645672
-0.645673
-0.645501
-0.746673
-0.747172
-0.747171
-0.74717
-0.747169
-0.747169
-0.85085
-0.85085
-0.850851
-0.850851
-0.850851
-0.849708
-0.956366
-0.957546
-0.95757
-0.957594
-0.957618
-0.957643
-0.953986
-0.953986
-0.953986
-0.953986
-0.953986
-0.952481
-1.06171
-1.06207
-1.06213
-1.0622
-1.06227
-1.06233
-1.0546
-1.0546
-1.0546
-1.0546
-1.0546
-1.0534
-1.04661
-1.04777
-1.04777
-1.04777
-1.04777
-1.04777
-1.04285
-1.04285
-1.04285
-1.04285
-1.04285
-1.04227
-1.03947
-1.03972
-1.03972
-1.03972
-1.03972
-1.03972
-1.03789
-1.03789
-1.03789
-1.0379
-1.0379
-1.03781
-1.03692
-1.03694
-1.03694
-1.03693
-1.03693
-1.03693
-1.03645
-1.03645
-1.03645
-1.03645
-1.03645
-1.03646
-1.03625
-1.03623
-1.03622
-1.03622
-1.03622
-1.03622
-1.03611
-1.03612
-1.03612
-1.03612
-1.03613
-1.03616
-1.03621
-1.0362
-1.03619
-1.03618
-1.03618
-1.03618
-1.0364
-1.0364
-1.0364
-1.03641
-1.0364
-1.03639
-1.03674
-1.03679
-1.0368
-1.0368
-1.03679
-1.03679
-1.03746
-1.03746
-1.03747
-1.03746
-1.03746
-1.03732
-1.03827
-1.03852
-1.03852
-1.03851
-1.03852
-1.03851
-1.04009
-1.0401
-1.04009
-1.04009
-1.0401
-1.03969
-1.04161
-1.04228
-1.04227
-1.04227
-1.04227
-1.04227
-1.04505
-1.04506
-1.04505
-1.04506
-1.04506
-1.04393
-1.04733
-1.04862
-1.04862
-1.04862
-1.04863
-1.04862
-1.1372
-1.13719
-1.1372
-1.1372
-1.1372
-1.13824
-1.13593
-1.13352
-1.13243
-1.13153
-1.13077
-1.13014
-1.12983
-1.12982
-1.12982
-1.1298
-1.12981
-1.13041
-1.13041
-1.13043
-1.13043
-1.13045
-1.13118
-1.13116
-1.13115
-1.13113
-1.13113
-1.13199
-1.132
-1.13202
-1.13204
-1.13205
-1.13311
-1.13309
-1.13305
-1.13304
-1.13302
-1.13511
-1.13512
-1.13513
-1.13515
-1.13516
-1.22035
-1.22033
-1.22032
-1.22031
-1.22029
-1.20693
-1.20695
-1.20697
-1.20699
-1.20702
-1.20261
-1.20258
-1.20257
-1.20256
-1.20254
-1.19888
-1.1989
-1.19891
-1.19892
-1.19894
-1.19587
-1.19586
-1.19585
-1.19585
-1.19584
-1.19329
-1.19329
-1.1933
-1.19331
-1.19332
-1.1936
-1.19619
-1.19929
-1.203
-1.20745
-1.22274
-1.22546
-1.20733
-1.20301
-1.19942
-1.19642
-1.19391
-1.13071
-1.13135
-1.13212
-1.13304
-1.13415
-1.13704
-1.1376
-1.1344
-1.13333
-1.13245
-1.1317
-1.13108
-1.06657
-1.06514
-1.06341
-1.06134
-1.05886
-1.05302
-0.965427
-0.989302
-0.994918
-0.999594
-1.00349
-1.00674
-1.0072
-1.00406
-1.00028
-0.995742
-0.990302
-0.967255
-0.907574
-0.931645
-0.938928
-0.944997
-0.950054
-0.954262
-0.910632
-0.905181
-0.898642
-0.890792
-0.881377
-0.852534
-0.807854
-0.842684
-0.854934
-0.865141
-0.873648
-0.880737
-0.865389
-0.857043
-0.847025
-0.835004
-0.82058
-0.785378
-0.784292
-0.819633
-0.834365
-0.846641
-0.85687
-0.865391
-0.880745
-0.87331
-0.864394
-0.853689
-0.840844
-0.80557
-0.805044
-0.839337
-0.852614
-0.863674
-0.872891
-0.88057
-0.880328
-0.872132
-0.862294
-0.850486
-0.836314
-0.802535
-0.798782
-0.796117
-0.795959
-0.795822
-0.795717
-0.795622
-0.834202
-0.849008
-0.861347
-0.871631
-0.880197
-0.880194
-0.871635
-0.861357
-0.849023
-0.834225
-0.834249
-0.849038
-0.861366
-0.871635
-0.880188
-0.880181
-0.871634
-0.861374
-0.849058
-0.834281
-0.834314
-0.84908
-0.861383
-0.871636
-0.880172
-0.880216
-0.871715
-0.861509
-0.849261
-0.834561
-0.871404
-0.883691
-0.893937
-0.902467
-0.909577
-0.909252
-0.902116
-0.893558
-0.883276
-0.870947
-0.870893
-0.883243
-0.893538
-0.902112
-0.909254
-0.909253
-0.902103
-0.893514
-0.883217
-0.870853
-0.870814
-0.883193
-0.8935
-0.902096
-0.909253
-0.909254
-0.902088
-0.893492
-0.883173
-0.870789
-0.837175
-0.837299
-0.837443
-0.837612
-0.837821
-0.840861
-0.812903
-0.807895
-0.807311
-0.806826
-0.806419