/*--------------------------------*- C++ -*----------------------------------*\
| =========                 |                                                 |
| \\      /  F ield         | OpenFOAM: The Open Source CFD Toolbox           |
|  \\    /   O peration     | Version:  2212                                  |
|   \\  /    A nd           | Website:  www.openfoam.com                      |
|    \\/     M anipulation  |                                                 |
\*---------------------------------------------------------------------------*/
FoamFile
{
    version     2.0;
    format      ascii;
    arch        "LSB;label=32;scalar=64";
    class       volScalarField;
    location    "330";
    object      T;
}
// * * * * * * * * * * * * * * * * * * * * * * * * * * * * * * * * * * * * * //

dimensions      [0 0 0 1 0 0 0];

internalField   nonuniform List<scalar> 
248319
(
309.389
309.382
309.705
309.913
310.082
310.194
310.233
310.284
310.236
310.08
309.861
309.641
309.4
309.482
309.808
310.012
310.13
310.184
310.179
309.838
309.83
309.785
309.732
309.672
309.574
309.546
309.61
309.6
309.598
309.628
309.641
309.895
309.91
309.893
309.866
309.824
309.479
309.183
309.456
309.674
309.803
309.875
309.889
309.887
309.828
309.684
309.51
309.357
309.147
309.095
309.186
309.285
309.415
309.534
309.583
309.733
309.694
309.59
309.473
309.382
309.263
309.341
309.565
309.709
309.885
310.031
310.089
310.203
310.155
310.012
309.827
309.656
309.297
309.367
309.728
309.974
310.197
310.345
310.391
310.284
310.29
310.237
310.111
309.855
309.448
309.524
309.637
309.731
309.828
309.9
309.917
309.561
309.508
309.447
309.395
309.343
309.293
309.229
309.288
309.337
309.398
309.473
309.53
309.338
309.287
309.226
309.173
309.123
309.081
309.033
309.133
309.293
309.486
309.621
309.66
309.426
309.375
309.248
309.11
309.027
308.992
308.96
308.957
308.994
309.091
309.197
309.24
309.189
309.149
309.051
308.97
308.939
308.94
309.06
309.112
309.168
309.264
309.371
309.416
309.561
309.524
309.422
309.321
309.257
309.204
309.174
309.327
309.437
309.57
309.692
309.74
309.913
309.868
309.743
309.597
309.471
309.24
309.319
309.666
309.796
309.942
310.071
310.122
310.404
310.355
310.213
310.025
309.842
309.4
309.46
309.934
310.167
310.364
310.488
310.525
310.372
310.372
310.318
310.211
309.999
309.512
309.545
309.655
309.757
309.872
309.973
310.014
309.654
309.61
309.548
309.486
309.428
309.375
309.264
309.306
309.359
309.425
309.502
309.571
309.462
309.39
309.317
309.256
309.206
309.166
309.096
309.126
309.173
309.238
309.323
309.416
309.318
309.244
309.168
309.108
309.056
309.018
308.984
309.064
309.206
309.396
309.546
309.595
309.403
309.357
309.236
309.096
309.003
308.957
308.946
308.957
309.017
309.131
309.244
309.285
309.269
309.227
309.119
309.02
308.969
308.961
309.006
309.011
309.059
309.148
309.249
309.295
309.193
309.151
309.058
308.985
308.951
308.945
309.074
309.109
309.138
309.207
309.3
309.343
309.484
309.444
309.345
309.264
309.222
309.187
309.126
309.242
309.348
309.477
309.605
309.658
309.871
309.829
309.706
309.578
309.477
309.09
309.21
309.556
309.666
309.792
309.905
309.947
310.239
310.209
310.132
310.055
309.962
309.28
309.403
310.014
310.116
310.228
310.336
310.381
310.608
310.566
310.439
310.259
310.077
309.474
309.562
310.125
310.341
310.507
310.608
310.637
310.47
310.468
310.418
310.327
310.14
309.613
309.601
309.707
309.802
309.923
310.037
310.09
309.767
309.716
309.639
309.564
309.499
309.443
309.354
309.394
309.451
309.525
309.612
309.687
309.635
309.545
309.453
309.384
309.339
309.316
309.206
309.232
309.278
309.344
309.431
309.522
309.485
309.381
309.288
309.226
309.188
309.173
309.059
309.079
309.121
309.184
309.276
309.383
309.307
309.219
309.136
309.074
309.024
308.989
308.971
309.055
309.195
309.382
309.532
309.58
309.439
309.395
309.277
309.135
309.029
308.962
308.977
309
309.078
309.204
309.315
309.352
309.353
309.316
309.21
309.101
309.04
309.031
309.112
309.114
309.164
309.253
309.348
309.386
309.432
309.399
309.325
309.259
309.222
309.213
309.075
309.086
309.132
309.207
309.293
309.336
309.221
309.181
309.097
309.033
308.998
308.982
309.122
309.132
309.142
309.194
309.276
309.316
309.449
309.411
309.325
309.264
309.236
309.206
309.16
309.253
309.344
309.459
309.579
309.631
309.873
309.828
309.708
309.589
309.48
309.099
309.056
309.784
310.063
310.19
310.288
310.329
310.244
310.211
310.127
310.039
309.871
309.094
309.063
309.659
310.019
310.311
310.477
310.531
310.556
310.521
310.426
310.271
310.014
309.25
309.397
310.259
310.406
310.521
310.615
310.65
310.735
310.704
310.606
310.454
310.269
309.45
309.539
310.243
310.455
310.597
310.677
310.7
310.561
310.556
310.506
310.416
310.233
309.618
309.593
309.715
309.824
309.958
310.089
310.154
309.874
309.793
309.681
309.58
309.501
309.44
309.39
309.42
309.486
309.581
309.697
309.796
309.754
309.646
309.528
309.442
309.394
309.386
309.382
309.373
309.413
309.496
309.614
309.728
309.61
309.505
309.407
309.34
309.304
309.296
309.279
309.274
309.304
309.369
309.471
309.585
309.465
309.348
309.251
309.189
309.158
309.154
309.04
309.052
309.088
309.15
309.245
309.362
309.301
309.204
309.119
309.059
309.013
308.982
308.979
309.072
309.213
309.395
309.538
309.585
309.489
309.446
309.335
309.194
309.078
308.988
309.026
309.062
309.155
309.286
309.39
309.423
309.441
309.409
309.309
309.193
309.121
309.111
309.222
309.218
309.27
309.362
309.453
309.487
309.55
309.52
309.448
309.381
309.344
309.342
309.497
309.505
309.533
309.571
309.614
309.636
309.494
309.47
309.422
309.384
309.36
309.346
309.182
309.197
309.235
309.287
309.349
309.383
309.278
309.242
309.171
309.119
309.092
309.072
309.2
309.181
309.17
309.209
309.285
309.325
309.458
309.425
309.347
309.296
309.279
309.262
309.234
309.31
309.389
309.493
309.604
309.649
309.916
309.873
309.758
309.65
309.575
309.185
309.13
309.85
310.114
310.263
310.373
310.416
310.48
310.419
310.229
309.931
309.593
309.055
309.017
309.527
309.892
310.224
310.435
310.504
310.215
310.153
309.944
309.614
309.296
309.031
309.054
309.383
309.704
310.018
310.231
310.311
310.511
310.452
310.278
310.003
309.705
309.193
309.344
310.167
310.431
310.612
310.722
310.759
310.75
310.732
310.67
310.557
310.372
309.42
309.51
310.304
310.501
310.616
310.675
310.69
310.589
310.58
310.525
310.431
310.252
309.54
309.493
309.614
309.752
309.93
310.101
310.192
309.947
309.812
309.648
309.519
309.443
309.407
309.421
309.413
309.46
309.572
309.735
309.881
309.852
309.709
309.55
309.446
309.417
309.455
309.457
309.406
309.439
309.547
309.704
309.842
309.834
309.706
309.555
309.443
309.395
309.434
309.365
309.354
309.392
309.474
309.595
309.713
309.698
309.579
309.457
309.375
309.336
309.34
309.26
309.25
309.276
309.341
309.447
309.569
309.45
309.323
309.222
309.162
309.136
309.14
309.035
309.039
309.069
309.127
309.223
309.348
309.299
309.196
309.11
309.055
309.014
308.987
309.001
309.104
309.244
309.419
309.553
309.596
309.543
309.503
309.399
309.262
309.14
309.028
309.085
309.137
309.24
309.37
309.466
309.495
309.532
309.503
309.41
309.293
309.21
309.196
309.334
309.325
309.381
309.478
309.567
309.596
309.683
309.653
309.581
309.511
309.472
309.476
309.649
309.664
309.698
309.738
309.781
309.801
309.991
309.993
310.006
310.025
310.039
310.041
309.819
309.799
309.783
309.766
309.759
309.761
309.578
309.567
309.557
309.566
309.589
309.612
309.39
309.378
309.384
309.402
309.436
309.459
309.354
309.321
309.268
309.242
309.241
309.25
309.338
309.333
309.324
309.338
309.385
309.415
309.495
309.47
309.407
309.365
309.349
309.339
309.34
309.393
309.444
309.527
309.622
309.66
309.9
309.86
309.757
309.675
309.688
309.322
309.276
309.972
310.136
310.235
310.322
310.361
310.479
310.429
310.277
310.044
309.772
309.177
309.12
309.574
309.853
310.111
310.275
310.328
310.252
310.193
309.997
309.684
309.362
309.027
309.059
309.241
309.518
309.838
310.056
310.123
310.064
310.001
309.778
309.45
309.192
309.103
309.128
309.251
309.511
309.814
310.015
310.077
310.201
310.133
309.964
309.722
309.476
309.207
309.315
309.815
310.067
310.317
310.485
310.539
310.616
310.605
310.557
310.43
310.18
309.406
309.516
310.271
310.428
310.517
310.561
310.572
310.471
310.456
310.388
310.289
310.171
309.534
309.472
309.498
309.61
309.817
310.042
310.171
309.953
309.766
309.578
309.479
309.448
309.449
309.528
309.474
309.47
309.542
309.723
309.915
309.913
309.733
309.549
309.472
309.495
309.592
309.582
309.475
309.479
309.581
309.76
309.92
309.928
309.794
309.632
309.518
309.478
309.558
309.547
309.523
309.585
309.695
309.83
309.938
309.834
309.716
309.575
309.463
309.401
309.414
309.414
309.436
309.505
309.609
309.731
309.833
309.696
309.575
309.452
309.365
309.321
309.318
309.238
309.228
309.254
309.32
309.431
309.56
309.439
309.305
309.201
309.143
309.121
309.131
309.037
309.035
309.06
309.113
309.208
309.339
309.299
309.192
309.108
309.06
309.026
309.003
309.032
309.144
309.282
309.448
309.57
309.611
309.597
309.562
309.465
309.334
309.21
309.078
309.151
309.218
309.328
309.455
309.543
309.569
309.626
309.6
309.512
309.394
309.304
309.283
309.445
309.432
309.493
309.595
309.683
309.71
309.818
309.788
309.715
309.642
309.599
309.607
309.802
309.825
309.863
309.905
309.944
309.964
310.199
310.207
310.233
310.263
310.283
310.282
311.513
311.296
311.091
310.91
310.779
310.732
310.605
310.635
310.717
310.827
310.946
311.073
310.785
310.691
310.615
310.546
310.494
310.476
310.264
310.283
310.33
310.387
310.436
310.486
310.195
310.151
310.102
310.044
309.996
309.979
309.771
309.768
309.798
309.877
309.958
310.006
310.065
310.007
309.943
309.887
309.873
309.881
310
309.986
309.969
310.006
310.088
310.121
309.376
309.388
309.395
309.431
309.495
309.524
309.726
309.692
309.619
309.596
309.727
309.376
309.321
309.876
310.064
310.142
310.2
310.226
310.39
310.343
310.193
309.959
309.707
309.23
309.172
309.561
309.817
310.075
310.245
310.298
310.226
310.171
309.98
309.71
309.45
309.152
309.111
309.456
309.736
310.013
310.189
310.242
310.203
310.151
309.963
309.679
309.414
309.158
309.12
309.22
309.444
309.747
309.98
310.054
309.979
309.909
309.668
309.373
309.209
309.224
309.264
309.238
309.422
309.705
309.916
309.978
310.012
309.967
309.816
309.59
309.392
309.297
309.363
309.616
309.802
309.985
310.12
310.176
310.354
310.336
310.259
310.102
309.907
309.433
309.538
310.063
310.184
310.253
310.291
310.301
310.146
310.135
310.082
310.018
309.961
309.555
309.503
309.498
309.516
309.593
309.751
309.891
309.732
309.606
309.534
309.515
309.524
309.546
309.692
309.6
309.551
309.541
309.601
309.732
309.771
309.631
309.549
309.563
309.635
309.786
309.766
309.604
309.56
309.578
309.679
309.812
309.851
309.739
309.634
309.587
309.594
309.734
309.715
309.636
309.657
309.713
309.801
309.885
309.925
309.89
309.85
309.819
309.798
309.781
309.594
309.654
309.712
309.794
309.885
309.957
310.307
310.287
310.254
310.218
310.178
309.93
309.516
309.597
309.648
309.716
309.794
309.862
309.697
309.583
309.465
309.377
309.326
309.305
309.216
309.21
309.239
309.307
309.423
309.556
309.433
309.293
309.187
309.13
309.111
309.125
309.047
309.039
309.058
309.106
309.2
309.334
309.301
309.192
309.112
309.07
309.044
309.026
309.071
309.188
309.323
309.476
309.587
309.625
309.65
309.618
309.53
309.406
309.282
309.134
309.222
309.302
309.415
309.538
309.619
309.641
309.72
309.696
309.612
309.493
309.398
309.372
309.557
309.539
309.604
309.711
309.798
309.824
309.951
309.922
309.848
309.773
309.73
309.74
309.972
309.998
310.037
310.075
310.108
310.124
310.417
310.437
310.486
310.543
310.584
310.597
312.088
311.823
311.554
311.301
311.123
311.067
312.06
312.136
312.396
312.76
313.1
313.385
312.946
312.654
312.319
311.954
311.7
311.631
311.212
311.281
311.521
311.889
312.271
312.611
312.163
311.783
311.414
311.101
310.916
310.867
310.514
310.536
310.641
310.86
311.174
311.576
310.894
310.483
310.234
310.134
310.124
310.129
310.093
310.078
310.06
310.098
310.203
310.432
310.159
310.081
310.002
309.939
309.923
309.931
310.088
310.07
310.05
310.095
310.194
310.299
310.413
310.353
310.226
310.221
310.283
310.318
310.21
310.183
310.139
310.184
310.261
310.167
310.207
310.34
310.456
310.548
310.592
310.609
310.659
310.639
310.567
310.443
310.329
310.251
310.315
310.362
310.466
310.599
310.674
310.691
310.774
310.753
310.663
310.527
310.433
310.396
310.495
310.528
310.623
310.761
310.863
310.886
310.192
310.126
309.919
309.656
309.414
309.166
309.223
309.437
309.662
309.91
310.12
310.197
310.213
310.155
309.952
309.669
309.424
309.233
309.213
309.267
309.444
309.718
309.956
310.038
309.953
309.871
309.629
309.385
309.294
309.367
309.455
309.311
309.419
309.669
309.883
309.948
309.966
309.922
309.767
309.556
309.405
309.446
309.474
309.568
309.722
309.888
310.002
310.04
310.238
310.206
310.111
309.967
309.808
309.515
309.602
309.94
309.984
310.021
310.053
310.064
309.841
309.842
309.825
309.806
309.808
309.616
309.575
309.563
309.565
309.58
309.612
309.649
309.648
309.617
309.608
309.619
309.646
309.688
309.905
309.778
309.696
309.646
309.632
309.654
309.665
309.644
309.659
309.723
309.838
310.034
310.014
309.794
309.705
309.66
309.657
309.682
309.707
309.683
309.677
309.698
309.751
309.971
309.933
309.755
309.73
309.724
309.733
309.749
309.935
309.933
309.933
309.939
309.949
310.004
310.568
310.994
311.07
311.132
311.193
311.253
310.779
310.751
310.721
310.687
310.643
310.285
310.952
311.689
311.778
311.795
311.759
311.702
311.181
311.196
311.199
311.181
311.129
310.593
309.918
310.198
310.244
310.282
310.31
310.329
309.708
309.612
309.512
309.442
309.396
309.358
309.196
309.198
309.231
309.304
309.424
309.559
309.431
309.287
309.179
309.122
309.104
309.12
309.06
309.048
309.061
309.105
309.195
309.331
309.304
309.196
309.12
309.085
309.067
309.054
309.114
309.235
309.363
309.501
309.604
309.639
309.699
309.672
309.592
309.476
309.353
309.193
309.294
309.382
309.498
309.617
309.692
309.711
309.808
309.786
309.704
309.584
309.486
309.46
309.663
309.638
309.703
309.813
309.9
309.926
310.062
310.032
309.96
309.884
309.843
309.857
310.111
310.137
310.172
310.206
310.233
310.244
310.549
310.583
310.653
310.731
310.796
310.846
312.34
312.056
311.76
311.478
311.275
311.198
312.264
312.345
312.591
312.919
313.212
313.444
314
313.481
313.122
312.801
312.634
312.62
313.703
316.214
325.494
357.597
435.533
427.809
346.985
320.282
314.575
313.228
313.107
313.705
316.455
335.678
417.086
405.783
328.955
315.234
313.716
313.357
313.729
314.041
315.213
326.851
400.671
404.724
328.36
315.843
314.615
314.298
315.085
315.422
317.101
332.698
413.983
411.857
331.933
317.166
315.702
315.523
315.408
315.549
315.656
315.815
317
329.97
406.865
402.106
327.611
316.136
315.124
314.928
314.418
314.706
315.802
327.492
402.548
409.857
329.935
315.837
314.33
313.926
313.624
314.361
317.271
337.908
425.015
442.948
354.798
323.235
316.025
314.173
316.146
320.627
333.962
372.522
453.268
454.528
374.443
334.159
320.449
316
314.46
316.376
324.021
357.476
444.898
428.685
340.476
318.027
314.768
314.045
314.333
314.731
316.431
332.095
414.505
406.987
329.16
316.266
315.042
314.775
315.239
315.435
316.483
328.544
404.779
404.782
329.036
317.1
316.106
315.974
315.876
315.087
314.563
314.055
313.607
313.419
313.497
312.998
313.056
313.34
313.843
314.383
314.86
314.463
313.922
313.362
312.879
312.625
312.582
312.075
312.106
312.31
312.748
313.298
313.895
313.143
312.575
312.09
311.735
311.602
311.596
310.95
310.94
310.963
311.123
311.436
312.209
311.077
310.834
310.701
310.666
310.705
310.738
310.469
310.441
310.416
310.486
310.686
311.023
310.48
310.247
310.178
310.183
310.238
310.272
310.411
310.374
310.294
310.266
310.356
311.079
310.836
310.321
310.172
310.152
310.204
310.235
310.443
310.407
310.328
310.303
310.399
311.226
311.639
310.834
310.683
310.688
310.757
310.798
310.71
310.687
310.66
310.676
310.668
310.487
310.532
310.775
310.92
311.06
311.163
311.196
311.25
311.214
311.107
310.957
310.801
310.583
310.666
310.857
311.022
311.175
311.276
311.309
311.406
311.379
311.284
311.134
310.964
310.782
310.939
311.124
311.3
311.443
311.532
311.557
311.04
311.014
310.907
310.768
310.67
310.619
310.781
310.837
310.947
311.087
311.192
311.209
310.244
310.161
309.961
309.734
309.527
309.323
309.359
309.506
309.723
309.988
310.194
310.26
310.069
309.984
309.751
309.51
309.37
309.335
309.53
309.417
309.459
309.654
309.887
309.978
309.972
309.906
309.695
309.485
309.453
309.681
309.636
309.491
309.59
309.781
309.938
309.984
310.025
309.992
309.883
309.727
309.602
309.629
309.64
309.796
309.936
310.083
310.19
310.228
310.118
310.106
310.076
310.05
310.002
309.714
309.724
309.907
309.84
309.815
309.815
309.811
309.737
309.697
309.671
309.665
309.671
309.681
309.864
309.789
309.75
309.726
309.725
309.752
309.771
309.762
309.801
309.881
309.998
310.153
310.313
310.066
309.913
309.816
309.776
309.786
309.81
309.795
309.821
309.896
310.021
310.292
310.244
309.966
309.885
309.841
309.833
309.849
309.927
309.913
309.911
309.927
309.967
310.202
310.293
310.209
310.2
310.196
310.2
310.21
311.676
311.58
311.481
311.383
311.275
310.853
311.495
312.215
312.357
312.354
312.215
312.029
311.942
312.066
312.153
312.14
312.004
311.19
311.458
311.761
311.8
311.684
311.472
311.246
311.303
311.508
311.7
311.806
311.779
311.296
311.066
311.562
311.571
311.505
311.392
311.269
310.822
310.86
310.888
310.895
310.872
310.483
309.599
309.73
309.769
309.816
309.873
309.924
309.567
309.438
309.319
309.241
309.2
309.188
309.114
309.1
309.119
309.177
309.287
309.433
309.332
309.195
309.107
309.069
309.061
309.076
309.086
309.092
309.103
309.131
309.202
309.309
309.652
309.619
309.525
309.403
309.282
309.159
309.251
309.419
309.539
309.649
309.72
309.745
309.774
309.758
309.688
309.571
309.454
309.36
309.536
309.56
309.658
309.78
309.861
309.882
310.002
309.976
309.887
309.774
309.711
309.745
309.924
309.904
309.947
310.025
310.1
310.13
310.299
310.289
310.261
310.223
310.179
310.136
310.848
310.802
310.75
310.676
310.612
310.582
311.224
311.341
311.582
311.87
312.164
312.453
313.763
314.122
314.482
316.085
331.659
415.864
416.382
419.289
421.847
420.342
419.745
345.082
342.517
338.301
333.793
331.509
315.593
315.741
316.82
318.951
320.89
314.654
314.018
313.569
313.62
313.921
313.563
313.187
312.912
312.852
312.949
312.193
312.293
312.52
312.862
313.261
313.212
312.769
312.366
312.057
311.878
312.353
312.5
312.748
313.096
313.5
314.115
313.632
313.431
313.393
313.367
317.131
317.108
316.936
317.163
318.136
342.129
341.341
338.622
336.068
334.605
405.894
410.261
421.357
428.151
429.372
428.433
341.194
318.479
314.741
314.118
313.735
314.399
314.818
315.592
319.675
342.81
429.05
417.767
334.055
317.093
315.191
314.781
314.443
314.713
315.125
315.489
315.903
318.367
338.008
421.191
424.509
339.044
318.724
316.294
316.07
316.043
316.026
316.132
316.338
318.043
334.567
416.463
409.313
331.167
317.827
316.677
316.549
316.465
316.568
316.652
316.783
318.016
331.938
410.54
404.691
329.282
317.192
316.17
316.041
315.942
315.248
315.376
315.531
316.546
328.353
403.22
403.972
410.519
423.126
438.182
448.961
369.077
352.72
338.113
330.952
328.499
316.29
316.381
317.668
322.422
329.943
318.348
315.878
314.809
314.854
315.169
314.959
314.553
314.233
314.367
315.132
313.633
313.663
313.909
314.345
314.797
314.669
314.22
313.755
313.448
313.367
313.021
313.085
313.352
313.798
314.264
314.681
314.098
313.631
313.149
312.742
312.549
312.522
311.887
311.885
311.964
312.262
312.71
313.273
312.3
311.568
311.299
311.192
311.218
311.249
311.011
310.967
310.891
310.882
310.967
311.186
311.943
311.078
310.968
311.016
311.133
311.189
310.894
310.851
310.761
310.756
310.938
311.938
311.706
310.83
310.572
310.542
310.614
310.656
310.893
310.845
310.749
310.765
311.119
312.893
311.734
310.507
310.432
310.491
310.594
310.643
310.972
310.929
310.835
310.797
310.949
312.423
313.16
311.878
311.708
311.641
311.662
311.692
311.429
311.412
311.375
311.362
311.346
312.107
312.584
311.48
311.514
311.616
311.72
311.767
311.813
311.78
311.698
311.62
311.63
313.1
313.65
311.84
311.776
311.827
311.894
311.925
312.071
312.053
312.008
311.991
312.119
314.241
314.876
312.469
312.267
312.242
312.265
312.281
311.747
311.731
311.66
311.533
311.359
311.153
311.451
311.67
311.845
311.946
311.987
311.993
311.423
311.419
311.331
311.199
311.086
311
309.471
309.655
309.855
310.066
310.257
310.347
310.352
310.287
310.09
309.848
309.653
309.527
309.485
309.497
309.619
309.836
310.06
310.149
310.052
309.96
309.749
309.596
309.591
309.713
309.926
309.643
309.602
309.771
309.975
310.044
310.049
310.003
309.848
309.681
309.632
309.854
309.821
309.697
309.789
309.931
310.04
310.072
310.216
310.182
310.086
309.957
309.843
309.801
309.851
310.078
310.148
310.191
310.228
310.242
309.916
309.924
309.937
309.983
310.074
309.857
309.813
309.787
309.776
309.777
309.801
309.845
309.888
309.87
309.887
309.928
309.986
310.063
310.421
310.216
310.072
309.967
309.909
309.908
309.936
309.936
310
310.129
310.321
310.61
310.583
310.26
310.104
310.005
309.965
309.975
310.046
310.028
310.044
310.1
310.2
310.529
310.501
310.226
310.177
310.156
310.159
310.179
310.545
310.527
310.514
310.509
310.514
310.623
311.171
311.499
311.616
311.735
311.864
311.974
312.079
312.266
312.456
312.51
312.431
311.897
311.57
311.632
311.587
311.469
311.33
311.171
311.194
311.389
311.58
311.709
311.723
311.577
310.403
310.512
310.523
310.449
310.32
310.19
310.384
310.563
310.738
310.847
310.856
310.761
311.004
311.162
311.141
311.006
310.799
310.591
310.79
310.97
311.153
311.284
311.328
311.085
310.822
311.098
311.071
311.001
310.905
310.809
310.226
310.226
310.22
310.207
310.185
309.983
309.243
309.26
309.299
309.367
309.469
309.581
309.438
309.291
309.179
309.12
309.099
309.108
309.092
309.073
309.078
309.113
309.199
309.336
309.312
309.208
309.144
309.123
309.121
309.119
309.202
309.327
309.441
309.548
309.635
309.67
309.781
309.763
309.701
309.597
309.478
309.304
309.417
309.511
309.628
309.744
309.811
309.827
309.934
309.914
309.833
309.709
309.611
309.596
309.799
309.75
309.809
309.925
310.018
310.044
310.155
310.123
310.043
309.96
309.92
309.941
310.067
310.119
310.184
310.243
310.284
310.297
310.587
310.609
310.648
310.678
310.687
310.68
312.531
312.236
311.927
311.605
311.317
311.157
311.057
311.252
311.585
311.937
312.264
312.583
313.754
314.265
315.749
322.811
351.955
437.663
434.512
426.751
411.537
397.285
394.303
326.842
328.573
333.673
341.915
348.666
320.221
317.116
315.839
314.978
314.472
312.392
312.674
313.041
313.47
314.329
313.403
312.932
312.487
312.105
311.85
311.573
311.808
312.19
312.652
313.151
313.264
312.584
312.022
311.573
311.308
311.503
311.806
312.279
312.888
313.94
316.248
313.792
312.719
312.185
311.828
313.156
313.737
315.047
318.766
325.011
354.874
342.87
330.892
324.885
323.403
390.534
393.288
409.196
424.369
435.312
444.476
366.308
332.894
320.588
316.235
314.182
315.182
318.248
323.539
336.845
370.454
446.918
438.287
353.7
324.609
317.027
315.146
314.416
314.905
315.66
317.871
326.404
357.155
440.933
431.703
346.194
320.979
316.105
315.205
314.86
314.909
315.161
315.586
318.044
337.424
420.362
421.235
338.931
318.651
315.948
315.528
315.329
315.457
315.802
316.267
319.176
340.519
423.642
431.308
343.796
319.979
316.769
316.434
316.381
316.396
316.532
316.786
318.758
336.877
420.522
411.078
332.173
318.419
317.236
317.109
317.027
317.227
317.312
317.442
318.783
333.743
413.964
424.436
338.948
319.635
317.587
317.42
317.315
316.605
316.708
316.874
318.625
335.891
419.343
410.638
331.584
317.522
316.227
316.084
315.982
315.362
314.973
314.575
314.159
313.877
313.805
314.726
317.219
327.316
362.645
441.909
434.929
351.064
321.814
315.675
314.383
314.404
314.918
317.858
339.167
424.839
414.493
332.435
316.633
314.993
314.732
315.103
315.285
316.514
329.882
408.225
407.418
329.789
316.766
315.611
315.466
315.552
315.698
317.194
332.787
415.353
420.09
334.437
317.162
315.407
315.21
314.86
315.155
317.504
337.9
426.356
430.899
344.06
318.861
315.1
314.538
314.437
315.638
321.764
350.118
430.675
431.357
354.163
324.576
316.46
314.557
313.946
314.029
314.313
314.716
315.099
315.474
315.131
314.932
314.682
314.37
314.088
313.972
313.879
313.995
314.285
314.618
314.887
315.093
314.685
314.467
314.197
313.888
313.662
313.595
313.155
313.19
313.355
313.663
313.966
314.185
313.229
312.903
312.638
312.453
312.402
312.416
312.211
312.219
312.303
312.516
312.798
313.103
312.192
311.857
311.696
311.634
311.673
311.716
311.44
311.414
311.407
311.513
311.736
312.078
312.532
311.864
311.574
311.494
311.541
311.579
311.832
311.802
311.79
311.989
312.582
313.965
313.64
311.427
311.208
311.256
311.382
311.44
311.152
311.096
310.986
310.974
311.249
313.508
314.17
311.447
311.221
311.257
311.376
311.435
311.213
311.157
311.045
311.017
311.254
313.811
314.494
312.436
312.002
311.825
311.841
311.872
312.82
312.802
312.765
312.778
312.979
315.036
313.791
312.244
312.174
312.236
312.333
312.375
312.46
312.419
312.342
312.32
312.462
314.383
314.969
312.727
312.509
312.491
312.547
312.582
312.73
312.706
312.678
312.743
313.045
315.537
316.047
313.4
313.021
312.909
312.913
312.93
313.152
313.148
313.176
313.338
313.791
316.447
315.551
312.898
312.61
312.536
312.529
312.533
312.835
312.845
312.891
313.024
313.429
316.259
311.863
312.106
312.259
312.307
312.3
312.288
311.663
311.675
311.62
311.502
311.39
311.297
309.685
309.872
310.065
310.253
310.425
310.508
310.499
310.437
310.254
310.035
309.858
309.746
309.678
309.686
309.794
309.988
310.195
310.282
310.174
310.083
309.893
309.773
309.791
309.927
310.192
309.872
309.779
309.895
310.09
310.159
310.157
310.111
309.959
309.825
309.819
310.106
310.048
309.842
309.905
310.029
310.134
310.163
310.259
310.231
310.147
310.035
309.943
309.999
310.023
310.178
310.258
310.31
310.35
310.365
310.056
310.066
310.089
310.152
310.248
310.021
309.977
309.943
309.925
309.92
309.939
309.984
310.043
310.031
310.062
310.12
310.199
310.3
310.717
310.473
310.297
310.164
310.085
310.075
310.119
310.123
310.204
310.359
310.587
310.923
310.886
310.516
310.337
310.221
310.174
310.187
310.31
310.283
310.295
310.357
310.467
310.832
310.833
310.542
310.493
310.478
310.492
310.524
310.958
310.926
310.898
310.879
310.876
311.001
311.554
311.769
311.871
311.986
312.112
312.21
312.21
312.359
312.52
312.614
312.625
312.319
311.452
311.527
311.503
311.415
311.291
311.167
310.009
310.067
310.12
310.144
310.094
309.842
310.055
310.214
310.252
310.21
310.125
310.048
309.205
309.272
309.334
309.37
309.366
309.321
309.582
309.653
309.669
309.629
309.547
309.453
309.745
309.878
310
310.066
310.06
309.979
310.435
310.497
310.474
310.368
310.204
310.035
310.325
310.499
310.682
310.815
310.871
310.782
310.85
310.975
310.915
310.81
310.679
310.557
310.352
310.388
310.422
310.446
310.454
310.293
309.375
309.395
309.427
309.48
309.558
309.642
309.446
309.298
309.185
309.124
309.1
309.103
309.108
309.087
309.089
309.121
309.204
309.341
309.319
309.218
309.159
309.145
309.148
309.15
309.242
309.369
309.478
309.572
309.652
309.683
309.815
309.799
309.743
309.644
309.527
309.349
309.462
309.553
309.669
309.785
309.85
309.865
309.963
309.943
309.86
309.735
309.641
309.639
309.832
309.764
309.814
309.932
310.029
310.055
310.143
310.11
310.021
309.933
309.897
309.934
309.961
310.021
310.1
310.18
310.239
310.257
310.558
310.562
310.562
310.544
310.509
310.461
310.266
310.317
310.383
310.442
310.481
310.488
310.946
311.15
311.501
311.868
312.216
312.587
312.219
311.926
311.619
311.285
310.968
310.796
310.805
311.001
311.523
312.162
313.14
314.783
316.075
313.521
312.269
311.534
311
310.821
311.103
311.381
311.869
312.631
314.488
318.18
313.563
311.936
311.467
311.204
311.551
311.747
312.404
316.134
324.24
338.439
325.048
316.371
314.445
314.863
339.51
336.162
343.122
356.837
373.1
450.934
443.767
435.221
424.109
427.763
448.246
443.275
446.844
449.727
453.31
378.482
368.495
360.442
357.59
363.788
322.625
320.608
323.085
331.918
343.859
329.218
319.407
313.887
312.483
312.545
311.233
311.423
312.072
314.883
321.631
315.769
312.813
311.771
311.328
311.081
310.798
310.935
311.413
312.251
314.174
320.706
326.133
340.761
349.991
362.738
390.171
456.769
457.825
393.253
369.881
359.59
351.019
331.887
325.14
340.476
354.543
376.445
411.544
467.605
456.895
389.764
354.05
335.557
325.842
317.557
318.119
327.967
338.379
357.822
394.591
460.515
449.912
374.326
339.551
325.259
319.353
315.791
316.273
319.821
325.851
340.557
376.078
451.348
442.158
358.752
327.196
318.321
316.054
315.345
315.26
315.532
316.352
321.301
347.284
432.791
432.755
347.254
321.514
316.736
316.005
315.796
315.77
315.931
316.318
318.947
339.017
421.169
423.874
340.677
319.471
316.612
316.159
315.812
316.663
316.721
317.074
320.183
343.533
431.032
419.379
336.344
318.997
317.15
316.88
316.7
317.588
317.653
317.765
318.803
331.609
409.226
413.503
333.768
319.321
318.099
318
317.917
318.081
318.154
318.275
320.247
339.486
425.118
433.097
345.21
321.421
318.459
318.29
318.285
317.481
317.516
317.731
320.695
344.202
431.918
424.344
338.989
319.194
316.957
316.785
316.749
316.104
316.147
316.276
317.803
333.411
414.642
414.721
333.707
317.851
316.279
316.147
316.081
315.448
315.106
314.773
314.411
314.137
314.056
314.3
315.278
319.878
340.044
411.583
411.798
339.416
319.05
315.038
314.32
314.525
314.934
318.055
339.275
418.166
421.025
337.181
317.35
315.109
314.865
315.202
315.381
317.091
334.274
417.713
415.051
332.968
317.209
315.695
315.545
315.57
315.738
317.747
337.191
425.544
427.677
343.361
320.065
315.855
315.268
314.91
315.44
319.564
343.27
425.949
416.035
338.419
318.143
314.936
314.544
314.306
314.783
317.648
333.476
401.566
396.879
331.373
317.379
314.744
314.243
314.148
314.22
314.474
314.826
315.159
315.503
315.238
314.97
314.756
314.526
314.314
314.223
314.14
314.229
314.451
314.692
314.888
315.098
314.885
314.741
314.563
314.323
314.102
314.016
313.729
313.773
313.947
314.194
314.379
314.482
313.851
313.618
313.413
313.231
313.131
313.112
312.965
313.01
313.159
313.391
313.627
313.846
313.914
313.403
313.104
312.899
312.811
312.805
312.502
312.504
312.573
312.778
313.102
313.592
313.411
312.813
312.469
312.282
312.241
312.256
311.867
311.836