/*--------------------------------*- C++ -*----------------------------------*\
| =========                 |                                                 |
| \\      /  F ield         | OpenFOAM: The Open Source CFD Toolbox           |
|  \\    /   O peration     | Version:  2212                                  |
|   \\  /    A nd           | Website:  www.openfoam.com                      |
|    \\/     M anipulation  |                                                 |
\*---------------------------------------------------------------------------*/
FoamFile
{
    version     2.0;
    format      ascii;
    arch        "LSB;label=32;scalar=64";
    class       volScalarField;
    location    "60";
    object      p;
}
// * * * * * * * * * * * * * * * * * * * * * * * * * * * * * * * * * * * * * //

dimensions      [0 2 -2 0 0 0 0];

internalField   nonuniform List<scalar> 
248319
(
0
0.0192781
0.0402674
0.0499093
0.0579491
0.0646519
0.0702457
0.109353
0.103288
0.0960143
0.087292
0.0768329
0.0510438
0.0498341
0.0761379
0.0872715
0.096568
0.104326
0.110797
0.0812578
0.0763877
0.070599
0.0636707
0.0553445
0.033092
0.0137199
0.028009
0.0342223
0.0395228
0.0440878
0.048062
0.0626273
0.0577892
0.0519912
0.0450519
0.0367426
0.0196811
-0.053949
-0.0471893
-0.0434438
-0.0403195
-0.0376984
-0.035522
-0.0212325
-0.0247003
-0.028859
-0.0338369
-0.0398022
-0.0507631
-0.0555464
-0.0402195
-0.0334771
-0.027862
-0.0231816
-0.0192649
0.0634654
0.0574259
0.0501774
0.0414865
0.0310652
0.0005428
0.0309068
0.0593116
0.0692843
0.0775987
0.0845265
0.0903057
0.100135
0.0944885
0.0877136
0.0795866
0.0698432
0.0359017
0.0499481
0.0749713
0.0847344
0.0928715
0.0996554
0.10531
0.109526
0.103003
0.0951824
0.0858061
0.0745668
0.0473124
0.0190744
0.039746
0.0463728
0.051899
0.0565818
0.0606306
-0.0356325
-0.0383627
-0.0410927
-0.0438208
-0.0465503
-0.053572
-0.0515049
-0.0438565
-0.0414681
-0.0392274
-0.0370891
-0.0350243
-0.140389
-0.140798
-0.141189
-0.141558
-0.141897
-0.145271
-0.144827
-0.141948
-0.140968
-0.140153
-0.139472
-0.138899
-0.132517
-0.133795
-0.13534
-0.137178
-0.139388
-0.144445
-0.145907
-0.139379
-0.136706
-0.134478
-0.132608
-0.131068
-0.133993
-0.135631
-0.137609
-0.139969
-0.142813
-0.150196
-0.0695839
-0.0525826
-0.0457623
-0.0400767
-0.0353435
-0.0313811
0.0473136
0.0406933
0.0327526
0.0232217
0.0117954
-0.0194654
-0.00915994
0.0315412
0.0452771
0.0567301
0.0662806
0.0742429
0.0901738
0.0833686
0.0752079
0.0654167
0.0536741
0.0104137
0.00965757
0.0523169
0.0641546
0.0740213
0.0822445
0.0891007
0.0978809
0.0922998
0.0856028
0.0775659
0.0679238
0.0344801
0.0489418
0.0735198
0.0833182
0.0914824
0.0982856
0.103953
0.109475
0.10278
0.0947532
0.0851306
0.0735942
0.0456348
0.0147834
0.0354091
0.0421944
0.0479073
0.052789
0.0570353
-0.0392391
-0.041955
-0.0446727
-0.0473907
-0.0501111
-0.058693
-0.147622
-0.143316
-0.142598
-0.14188
-0.141163
-0.140445
-0.139445
-0.140148
-0.140848
-0.141546
-0.142245
-0.146189
-0.243998
-0.242353
-0.24228
-0.242208
-0.242135
-0.242062
-0.24297
-0.242958
-0.242924
-0.242863
-0.242766
-0.243761
-0.243294
-0.242389
-0.242263
-0.242156
-0.242071
-0.242003
-0.238679
-0.239001
-0.239382
-0.239847
-0.240398
-0.24261
-0.242863
-0.239811
-0.239091
-0.238489
-0.23799
-0.237563
-0.238126
-0.238594
-0.239158
-0.239825
-0.240626
-0.24423
-0.245666
-0.241508
-0.240532
-0.239724
-0.23904
-0.238481
-0.136229
-0.138073
-0.14029
-0.142945
-0.146133
-0.154328
-0.0773999
-0.0596851
-0.0525314
-0.0465659
-0.0416008
-0.0374545
0.0342147
0.0274374
0.0193037
0.00953967
-0.00216173
-0.0328475
-0.0252857
0.0126317
0.0266626
0.0383612
0.0481143
0.0562417
0.0568239
0.0485562
0.0386331
0.0267294
0.0124489
-0.024731
-0.00912895
0.03069
0.0447112
0.0563975
0.0661398
0.0742608
0.0739347
0.0657329
0.0558918
0.044086
0.0299167
-0.00975419
0.00872788
0.051415
0.0634146
0.0734119
0.0817444
0.0886892
0.0975786
0.0919191
0.0851299
0.0769813
0.0672049
0.0335567
0.0480722
0.0729856
0.082914
0.0911871
0.0980823
0.103826
0.109426
0.10262
0.0944575
0.084672
0.0729394
0.044534
0.0132905
0.0339982
0.0409709
0.0468576
0.0518978
0.0562847
-0.0407176
-0.0434407
-0.0461632
-0.0488859
-0.0516099
-0.0603949
-0.14868
-0.144125
-0.14345
-0.142774
-0.1421
-0.141424
-0.242703
-0.242778
-0.242854
-0.242932
-0.243008
-0.245096
-0.244482
-0.24246
-0.242388
-0.242316
-0.242245
-0.242171
-0.343411
-0.343409
-0.343407
-0.343405
-0.343401
-0.34418
-0.34395
-0.343387
-0.34341
-0.343431
-0.343453
-0.343474
-0.344212
-0.344159
-0.344095
-0.344017
-0.343922
-0.344009
-0.343679
-0.343585
-0.343638
-0.343689
-0.343728
-0.343763
-0.341954
-0.342001
-0.342053
-0.342121
-0.342203
-0.343028
-0.34298
-0.341724
-0.341596
-0.341483
-0.341395
-0.341328
-0.341472
-0.341554
-0.341664
-0.341798
-0.341949
-0.343473
-0.343955
-0.342139
-0.341952
-0.341787
-0.341656
-0.341544
-0.34076
-0.340954
-0.34117
-0.341441
-0.34176
-0.344008
-0.246058
-0.241092
-0.239715
-0.23857
-0.237608
-0.236822
-0.13452
-0.136838
-0.139626
-0.142966
-0.146967
-0.156225
-0.0818386
-0.0633178
-0.055352
-0.0487084
-0.0431863
-0.0385641
0.0239707
0.017492
0.00971515
0.000383834
-0.0108007
-0.0405092
-0.0341785
0.00127524
0.0135902
0.0238588
0.0324189
0.0395522
0.0405645
0.0333931
0.0247879
0.0144639
0.00207955
-0.0330946
-0.0329088
0.00219372
0.0145653
0.0248768
0.0334719
0.040633
0.0567269
0.0484233
0.0384589
0.0265062
0.0121636
-0.0248724
-0.0250399
0.0120522
0.0263952
0.038347
0.0483077
0.0566071
0.0737411
0.065528
0.0556719
0.0438425
0.0296506
-0.010102
0.00828135
0.0511214
0.0631578
0.0731831
0.0815418
0.088505
0.0974555
0.0917766
0.0849651
0.0767893
0.0669753
0.0331497
0.0476879
0.0727837
0.082754
0.0910602
0.0979831
0.10375
0.109383
0.102531
0.0943137
0.0844615
0.0726504
0.044065
0.0127359
0.0335598
0.0406013
0.0465474
0.0516396
0.056068
-0.0412
-0.0439189
-0.0466369
-0.0493557
-0.0520759
-0.0610022
-0.149285
-0.144722
-0.144043
-0.143363
-0.142683
-0.142004
-0.243159
-0.243235
-0.243313
-0.24339
-0.243466
-0.245543
-0.344824
-0.343999
-0.343999
-0.343999
-0.343999
-0.343999
-0.343685
-0.343685
-0.343685
-0.343685
-0.343685
-0.34452
-0.444288
-0.443962
-0.443962
-0.443962
-0.443962
-0.443962
-0.443809
-0.443808
-0.443806
-0.443805
-0.443803
-0.444087
-0.444
-0.443846
-0.443861
-0.443876
-0.44389
-0.443903
-0.444463
-0.444433
-0.444394
-0.444347
-0.444292
-0.444142
-0.443997
-0.444133
-0.444191
-0.444244
-0.444289
-0.444322
-0.443398
-0.443398
-0.443392
-0.443386
-0.443381
-0.443637
-0.443712
-0.443267
-0.443263
-0.443249
-0.443245
-0.44323
-0.443591
-0.443613
-0.443609
-0.443631
-0.443647
-0.444156
-0.44473
-0.444191
-0.444157
-0.444141
-0.444131
-0.444109
-0.444411
-0.444436
-0.444473
-0.444508
-0.444562
-0.445183
-0.445398
-0.44458
-0.444465
-0.444362
-0.444288
-0.444224
-0.338894
-0.339261
-0.339681
-0.340195
-0.340809
-0.343697
-0.245854
-0.239668
-0.237488
-0.235669
-0.234142
-0.232883
-0.124322
-0.127574
-0.131488
-0.136183
-0.141819
-0.154711
-0.0825145
-0.0606387
-0.0513638
-0.0436286
-0.037197
-0.031811
0.016166
0.00996283
0.00252116
-0.00640728
-0.0171164
-0.0446065
-0.0407139
-0.0115198
-0.00121204
0.00738403
0.0145457
0.0205191
0.0212577
0.0153376
0.00823657
-0.00028623
-0.0105083
-0.0395488
-0.0393218
-0.0103382
-0.000138554
0.00836352
0.0154474
0.0213539
0.0213303
0.0154267
0.00835105
-0.000144056
-0.0103417
-0.0393539
-0.0329605
0.00218585
0.0145471
0.0248496
0.0334323
0.0405849
0.0405369
0.0333851
0.0248053
0.0145048
0.00214468
-0.0330542
-0.0251696
0.0119815
0.0263231
0.0382744
0.0482326
0.0565299
0.0736449
0.0654293
0.0555705
0.0437381
0.0295433
-0.0102815
0.00808864
0.051017
0.0630582
0.0730903
0.0814541
0.0884219
0.0974025
0.0917211
0.0849035
0.0767224
0.0669039
0.0330016
0.0475566
0.0727226
0.0827029
0.0910179
0.0979482
0.103721
0.109372
0.102504
0.094268
0.0843921
0.0725539
0.0439216
0.0125798
0.0335099
0.0405914
0.0465715
0.0516896
0.0561353
-0.0413547
-0.0440831
-0.0468106
-0.049538
-0.0522665
-0.0612195
-0.149543
-0.144989
-0.144307
-0.143626
-0.142943
-0.14226
-0.243427
-0.243505
-0.243582
-0.243658
-0.243735
-0.245792
-0.345038
-0.344235
-0.344235
-0.344235
-0.344235
-0.344235
-0.444393
-0.444393
-0.444393
-0.444393
-0.444393
-0.444695
-0.444506
-0.444187
-0.444187
-0.444187
-0.444187
-0.444187
-0.543749
-0.543749
-0.543749
-0.543749
-0.543749
-0.543884
-0.543698
-0.543558
-0.543558
-0.543558
-0.543558
-0.543558
-0.543446
-0.543446
-0.543446
-0.543445
-0.543444
-0.543564
-0.543533
-0.543488
-0.543496
-0.543503
-0.54351
-0.543517
-0.543902
-0.543886
-0.543867
-0.543842
-0.543814
-0.543679
-0.543684
-0.543824
-0.543863
-0.543889
-0.543908
-0.543939
-0.543612
-0.543596
-0.543605
-0.543592
-0.543584
-0.543627
-0.543938
-0.543848
-0.543842
-0.543859
-0.543839
-0.543848
-0.54459
-0.544581
-0.544601
-0.54459
-0.544595
-0.544629
-0.545635
-0.545716
-0.545717
-0.54572
-0.545709
-0.545713
-0.547063
-0.547067
-0.547072
-0.547073
-0.547079
-0.546855
-0.548132
-0.548475
-0.548449
-0.548444
-0.548425
-0.548414
-0.549317
-0.549341
-0.549381
-0.549415
-0.549463
-0.549093
-0.445344
-0.44415
-0.443878
-0.443653
-0.443468
-0.443311
-0.336084
-0.336743
-0.337514
-0.338448
-0.339572
-0.343327
-0.246675
-0.238982
-0.235669
-0.232902
-0.230587
-0.228666
-0.121773
-0.125812
-0.130677
-0.136515
-0.143517
-0.159731
-0.109597
-0.0815229
-0.0712073
-0.0626021
-0.0554304
-0.0494482
-0.0145124
-0.0204343
-0.0275272
-0.0360436
-0.0462559
-0.0736498
-0.0681766
-0.0358263
-0.0257756
-0.0173982
-0.0104102
-0.00458179
-0.00460099
-0.0104194
-0.0173933
-0.0257606
-0.0358056
-0.0676316
-0.067545
-0.0358214
-0.0257759
-0.0174054
-0.0104299
-0.00461519
-0.00466108
-0.010474
-0.0174516
-0.0258187
-0.0358624
-0.0676117
-0.0677018
-0.0359185
-0.0258692
-0.0174965
-0.010519
-0.00470319
0.0212931
0.0153896
0.00831171
-0.000185582
-0.0103854
-0.0394316
-0.0394941
-0.0104253
-0.000224507
0.00827697
0.0153598
0.021263
0.0405077
0.0333535
0.0247695
0.0144684
0.00210677
-0.0331212
-0.0252423
0.011943
0.026283
0.0382335
0.0481923
0.0564916
0.0736006
0.0653851
0.0555265
0.0436963
0.0295027
-0.0103599
0.00802075
0.0509824
0.0630226
0.0730561
0.0814202
0.0883878
0.0973845
0.0917018
0.084883
0.0767023
0.066888
0.0329644
0.0475278
0.0727099
0.0826898
0.0910057
0.0979362
0.103711
0.109365
0.102496
0.0942563
0.0843767
0.0725359
0.0438929
0.0125484
0.0335028
0.0405883
0.0465705
0.0516916
0.0561386
-0.0413828
-0.0441139
-0.0468423
-0.0495704
-0.0523007
-0.0612603
-0.149623
-0.145077
-0.144395
-0.143713
-0.143032
-0.142348
-0.243553
-0.243631
-0.243707
-0.243784
-0.243861
-0.245902
-0.345165
-0.344377
-0.344377
-0.344377
-0.344377
-0.344377
-0.444559
-0.444559
-0.444559
-0.444559
-0.444559
-0.444847
-0.544303
-0.544199
-0.544199
-0.544199
-0.544199
-0.544199
-0.543968
-0.543968
-0.543968
-0.543968
-0.543968
-0.544087
-0.643194
-0.643155
-0.643155
-0.643155
-0.643155
-0.643155
-0.642856
-0.642856
-0.642856
-0.642856
-0.642856
-0.642913
-0.642707
-0.642639
-0.642639
-0.642639
-0.642639
-0.642639
-0.64252
-0.64252
-0.64252
-0.64252
-0.64252
-0.642582
-0.642562
-0.642536
-0.642539
-0.642541
-0.642543
-0.642547
-0.642791
-0.642783
-0.642776
-0.642768
-0.642756
-0.64268
-0.642778
-0.642874
-0.642883
-0.642895
-0.642915
-0.642914
-0.642969
-0.642978
-0.642967
-0.642968
-0.642966
-0.642937
-0.64345
-0.643504
-0.64351
-0.643507
-0.643507
-0.643507
-0.644582
-0.644587
-0.644578
-0.644589
-0.644579
-0.644402
-0.645851
-0.646238
-0.646242
-0.646231
-0.64624
-0.646236
-0.648472
-0.648474
-0.648479
-0.648482
-0.648478
-0.647824
-0.650212
-0.651163
-0.651168
-0.651163
-0.651155
-0.651159
-0.653663
-0.653663
-0.653671
-0.653675
-0.653678
-0.652517
-0.653225
-0.654543
-0.654518
-0.65451
-0.654488
-0.654485
-0.54896
-0.549032
-0.549112
-0.549204
-0.549318
-0.549085
-0.445065
-0.443228
-0.442659
-0.442183
-0.441786
-0.441463
-0.332422
-0.333575
-0.334926
-0.336564
-0.338529
-0.343588
-0.247311
-0.235391
-0.230352
-0.226149
-0.22263
-0.219724
-0.12571
-0.130368
-0.135953
-0.142655
-0.150691
-0.170157
-0.126782
-0.0995958
-0.0890904
-0.0803312
-0.0730293
-0.0669435
-0.0553628
-0.0619302
-0.0698189
-0.0792761
-0.0906241
-0.121107
-0.102543
-0.0664914
-0.0549498
-0.0453255
-0.0373045
-0.0306151
-0.0307619
-0.0374145
-0.0453972
-0.0549732
-0.0664627
-0.101797
-0.101681
-0.0665634
-0.0550738
-0.0454956
-0.0375124
-0.0308607
-0.030936
-0.0375885
-0.0455731
-0.055151
-0.0666445
-0.101733
-0.101823
-0.0667062
-0.0552079
-0.0456296
-0.0376423
-0.0309874
-0.0310214
-0.0376761
-0.0456657
-0.0552489
-0.0667521
-0.101893
-0.0677686
-0.0359619
-0.0259077
-0.0175301
-0.0105503
-0.00473144
-0.0047467
-0.0105689
-0.0175508
-0.0259336
-0.0359877
-0.0678114
-0.0395324
-0.0104493
-0.000246176
0.0082533
0.0153409
0.0212434
0.0404913
0.033335
0.0247498
0.014447
0.00208285
-0.0331617
-0.0252788
0.0119231
0.0262647
0.0382159
0.0481765
0.0564737
0.0735855
0.0653704
0.055512
0.043682
0.0294889
-0.0103877
0.00800578
0.0509756
0.0630136
0.0730468
0.0814106
0.0883759
0.0973801
0.0916971
0.084881
0.0767018
0.0668868
0.0329651
0.0475315
0.0727085
0.0826893
0.0910058
0.0979346
0.103709
0.109365
0.102496
0.0942559
0.084376
0.0725348
0.0439047
0.0125713
0.033537
0.0406286
0.0466143
0.0517367
0.0561856
-0.0413682
-0.0440973
-0.0468253
-0.0495556
-0.0522865
-0.0612455
-0.149631
-0.145093
-0.144411
-0.143727
-0.143045
-0.142363
-0.2436
-0.243676
-0.243753
-0.243831
-0.243907
-0.24594
-0.345238
-0.344459
-0.344459
-0.344459
-0.344459
-0.344459
-0.444699
-0.444699
-0.444699
-0.444699
-0.444699
-0.444976
-0.544537
-0.54445
-0.54445
-0.54445
-0.54445
-0.54445
-0.644033
-0.644033
-0.644033
-0.644033
-0.644033
-0.644006
-0.643557
-0.643548
-0.643547
-0.643548
-0.643548
-0.643548
-0.74288
-0.74288
-0.74288
-0.74288
-0.74288
-0.742806
-0.742158
-0.742179
-0.742179
-0.742179
-0.742179
-0.742179
-0.741693
-0.741693
-0.741693
-0.741693
-0.741693
-0.741708
-0.741418
-0.741384
-0.741384
-0.741384
-0.741384
-0.741384
-0.741219
-0.741219
-0.741219
-0.741219
-0.741219
-0.741259
-0.741216
-0.741187
-0.741188
-0.741188
-0.74119
-0.74119
-0.741307
-0.741307
-0.741306
-0.741307
-0.741306
-0.74129
-0.741423
-0.741464
-0.741465
-0.741467
-0.741469
-0.741471
-0.741758
-0.741758
-0.741757
-0.741756
-0.741757
-0.741705
-0.742331
-0.742453
-0.74245
-0.742446
-0.742455
-0.74245
-0.743711
-0.743705
-0.743705
-0.743702
-0.743711
-0.743433
-0.745148
-0.745664
-0.745658
-0.74567
-0.745662
-0.745668
-0.748452
-0.748451
-0.748454
-0.748446
-0.748449
-0.747595
-0.750737
-0.752022
-0.75202
-0.75202
-0.752021
-0.752022
-0.755826
-0.75584
-0.755823
-0.755835
-0.755832
-0.754147
-0.757007
-0.758302
-0.758304
-0.75829
-0.758304
-0.75829
-0.75235
-0.752355
-0.752354
-0.75237
-0.752371
-0.750912
-0.650127
-0.65144
-0.651384
-0.65135
-0.651307
-0.65129
-0.546536
-0.54671
-0.546888
-0.547106
-0.547379
-0.547571
-0.444604
-0.441804
-0.44073
-0.439833
-0.439082
-0.438469
-0.328995
-0.330803
-0.33296
-0.33556
-0.33867
-0.345486
-0.255376
-0.239732
-0.233221
-0.227792
-0.223261
-0.219492
-0.140958
-0.14684
-0.153883
-0.162344
-0.172481
-0.201286
-0.161032
-0.133953
-0.123861
-0.115443
-0.108423
-0.102564
-0.0845284
-0.090957
-0.0986654
-0.107911
-0.118997
-0.153278
-0.152027
-0.118421
-0.107525
-0.0984393
-0.090868
-0.0845557
-0.0557023
-0.0621183
-0.0698252
-0.0790679
-0.0901573
-0.119902
-0.119719
-0.0901939
-0.0791326
-0.0699133
-0.0622307
-0.0558295
-0.055924
-0.0623237
-0.070002
-0.0792186
-0.0902751
-0.119779
-0.119868
-0.0903455
-0.0792859
-0.070067
-0.062384
-0.0559847
-0.056021
-0.0624224
-0.0701081
-0.0793319
-0.0903965
-0.119937
-0.119981
-0.090426
-0.0793603
-0.0701323
-0.0624464
-0.0560398
-0.0310406
-0.0376951
-0.0456871
-0.0552729
-0.0667807
-0.101939
-0.101966
-0.0667944
-0.0552862
-0.0457004
-0.0377086
-0.0310486
-0.00475949
-0.0105774
-0.0175623
-0.0259452
-0.0360015
-0.0678378
-0.0395546
-0.0104621
-0.000257127
0.00824457
0.0153299
0.0212355
0.0404829
0.033328
0.0247395
0.014436
0.0020708
-0.0331847
-0.0252976
0.0119148
0.0262574
0.0382077
0.0481689
0.0564681
0.0735829
0.0653677
0.0555076
0.0436816
0.0294875
-0.0103963
0.00800674
0.0509783
0.0630161
0.0730466
0.0814086
0.0883757
0.0973801
0.0916991
0.0848849
0.0767069
0.0668921
0.0329743
0.0475387
0.0727119
0.0826928
0.091008
0.0979373
0.103711
0.109365
0.102495
0.0942566
0.0843782
0.0725371
0.0439117
0.0125845
0.0335458
0.0406362
0.046623
0.0517425
0.0561892
-0.0413452
-0.044074
-0.0468028
-0.0495332
-0.0522651
-0.0612212
-0.149618
-0.145082
-0.144401
-0.143716
-0.143032
-0.142351
-0.243614
-0.24369
-0.243769
-0.243847
-0.243923
-0.245951
-0.345288
-0.344513
-0.344513
-0.344513
-0.344513
-0.344513
-0.44482
-0.444821
-0.44482
-0.44482
-0.44482
-0.445089
-0.544781
-0.544717
-0.544717
-0.544717
-0.544717
-0.544717
-0.644589
-0.644589
-0.644589
-0.644589
-0.644589
-0.644512
-0.744675
-0.744941
-0.744941
-0.744941
-0.744941
-0.744941
-0.743819
-0.743819
-0.743819
-0.743819
-0.743819
-0.743662
-0.843837
-0.844193
-0.844193
-0.844193
-0.844193
-0.844193
-0.842449
-0.842449
-0.842449
-0.842449
-0.842449
-0.842262
-0.841132
-0.841213
-0.841213
-0.841213
-0.841213
-0.841213
-0.840415
-0.840415
-0.840415
-0.840415
-0.840415
-0.840394
-0.839954
-0.839943
-0.839943
-0.839943
-0.839943
-0.839943
-0.839693
-0.839693
-0.839693
-0.839693
-0.839693
-0.839719
-0.839632
-0.8396
-0.8396
-0.839599
-0.839598
-0.839597
-0.839621
-0.839625
-0.83963
-0.839634
-0.839639
-0.839656
-0.839786
-0.83979
-0.839789
-0.839782
-0.839778
-0.839776
-0.840147
-0.840152
-0.840143
-0.840148
-0.840149
-0.840101
-0.840726
-0.840859
-0.840853
-0.840856
-0.840861
-0.840856
-0.842092
-0.842092
-0.842101
-0.842089
-0.842095
-0.841809
-0.843516
-0.84404
-0.844041
-0.844041
-0.844042
-0.844037
-0.846885
-0.846899
-0.846885
-0.846891
-0.846893
-0.846008
-0.849274
-0.850679
-0.85067
-0.850672
-0.850681
-0.850674
-0.854987
-0.854977
-0.854983
-0.854973
-0.854983
-0.852835
-0.856019
-0.858656
-0.858653
-0.858652
-0.858651
-0.858654
-0.85924
-0.859245
-0.859241
-0.859245
-0.859241
-0.858012
-0.901197
-0.901609
-0.901597
-0.901588
-0.901578
-0.901571
-0.925076
-0.933758
-0.940996
-0.947031
-0.952059
-0.952057
-0.947029
-0.940999
-0.933767
-0.925089
-0.9251
-0.933777
-0.941011
-0.947034
-0.95205
-0.952051
-0.947029
-0.94101
-0.933782
-0.925117
-0.925132
-0.933793
-0.941018
-0.947024
-0.952042
-0.952191
-0.947027
-0.940836
-0.933403
-0.924484
-0.925694
-0.934396
-0.941652
-0.947691
-0.952728
-0.909913
-0.903479
-0.895759
-0.886493
-0.875371
-0.848785
-0.805061
-0.838025
-0.851592
-0.862898
-0.872318
-0.880166
-0.880013
-0.871999
-0.862376
-0.85083
-0.836973
-0.83752
-0.851191
-0.862581
-0.872074
-0.879982
-0.879997
-0.872086
-0.862589
-0.851193
-0.837516
-0.837517
-0.851199
-0.862596
-0.872093
-0.880009
-0.880026
-0.872105
-0.862603
-0.851198
-0.837516
-0.837514
-0.851199
-0.862606
-0.872111
-0.88003
-0.865297
-0.856807
-0.846619
-0.834392
-0.819719
-0.81972
-0.834389
-0.846614
-0.856801
-0.865289
-0.86528
-0.856793
-0.846608
-0.834386
-0.81972
-0.819717
-0.834381
-0.846601
-0.856781
-0.865267
-0.865251
-0.856771
-0.846592
-0.834376
-0.819716
-0.818233
-0.833325
-0.845902
-0.856379
-0.865106
-0.865059
-0.856227
-0.845626
-0.832901
-0.817631
-0.782401
-0.782336
-0.782408
-0.782393
-0.782374
-0.782356
-0.782352
-0.71883
-0.718887
-0.718933
-0.719002
-0.719079
-0.717986
-0.636451
-0.636851
-0.636475
-0.636176
-0.635906
-0.635699
-0.536314
-0.537027
-0.537857
-0.538881
-0.540089
-0.542428
-0.446161
-0.439735
-0.436576
-0.43395
-0.431745
-0.42992
-0.321617
-0.325324
-0.329756
-0.335084
-0.341468
-0.356622
-0.302158
-0.273988
-0.264386
-0.256385
-0.24971
-0.244148
-0.204076
-0.209656
-0.216366
-0.224407
-0.234044
-0.260244
-0.222135
-0.195119
-0.185133
-0.176804
-0.169864
-0.164077
-0.15027
-0.156532
-0.164039
-0.173045
-0.18385
-0.214788
-0.191917
-0.153458
-0.141737
-0.131964
-0.123818
-0.117027
-0.11678
-0.123468
-0.131484
-0.141105
-0.152648
-0.190284
-0.189911
-0.152595
-0.141086
-0.131493
-0.123505
-0.116838
-0.0846744
-0.0909727
-0.0985338
-0.107607
-0.118488
-0.151844
-0.151888
-0.118569
-0.107692
-0.0986257
-0.0910698
-0.0847782
-0.0848434
-0.0911383
-0.0986966
-0.107765
-0.118651
-0.151983
-0.152058
-0.118705
-0.107814
-0.0987427
-0.0911819
-0.084885
-0.0849053
-0.0912048
-0.0987713
-0.107842
-0.118737
-0.152105
-0.152136
-0.118756
-0.107861
-0.0987874
-0.091219
-0.0849159
-0.056051
-0.0624603
-0.0701485
-0.0793765
-0.090444
-0.120008
-0.120023
-0.0904542
-0.0793832
-0.0701565
-0.0624661
-0.0560568
-0.0310547
-0.0377146
-0.0457065
-0.0552969
-0.066803
-0.101981
-0.0678487
-0.0360091
-0.0259505
-0.0175702
-0.0105828
-0.00476489
0.0212299
0.0153242
0.00823891
-0.000264847
-0.0104683
-0.0395653
-0.033196
0.00206507
0.0144303
0.0247338
0.0333242
0.0404798
0.0564698
0.0481665
0.0382056
0.026257
0.0119144
-0.0253041
-0.0103957
0.0294927
0.0436868
0.0555121
0.0653681
0.0735833
0.0883754
0.0814106
0.0730513
0.063021
0.0509839
0.00801269
0.032983
0.0668987
0.0767098
0.0848871
0.0917022
0.0973802
0.103712
0.0979376
0.0910073
0.0826943
0.0727171
0.0475465
0.0439214
0.0725423
0.0843812
0.0942571
0.102494
0.109365
0.0562011
0.0517549
0.0466347
0.0406485
0.0335589
0.0125997
-0.0612016
-0.0522477
-0.0495166
-0.0467877
-0.0440565
-0.0413267
-0.142338
-0.14302
-0.143703
-0.144386
-0.145069
-0.149604
-0.245955
-0.243927
-0.24385
-0.243773
-0.243695
-0.243618
-0.344552
-0.344552
-0.344552
-0.344552
-0.344552
-0.345322
-0.44519
-0.44493
-0.44493
-0.44493
-0.44493
-0.44493
-0.544974
-0.544974
-0.544974
-0.544974
-0.544974
-0.545016
-0.645018
-0.645149
-0.645149
-0.645149
-0.645149
-0.645149
-0.74611
-0.74611
-0.74611
-0.74611
-0.74611
-0.745721
-0.847849
-0.848721
-0.848721
-0.848721
-0.848721
-0.848721
-0.846376
-0.846376
-0.846376
-0.846376
-0.846376
-0.845782
-0.948323
-0.949501
-0.949501
-0.949501
-0.949501
-0.949501
-0.945469
-0.945469
-0.945469
-0.945469
-0.945469
-0.944787
-0.94206
-0.942414
-0.942414
-0.942414
-0.942414
-0.942414
-0.940368
-0.940368
-0.940368
-0.940368
-0.940368
-0.940206
-0.939057
-0.939115
-0.939115
-0.939115
-0.939115
-0.939115
-0.938407
-0.938407
-0.938407
-0.938407
-0.938407
-0.938398
-0.938057
-0.938041
-0.938041
-0.938041
-0.938041
-0.938041
-0.937873
-0.937876
-0.937877
-0.937877
-0.937879
-0.937908
-0.93788
-0.937849
-0.937842
-0.937837
-0.937831
-0.937826
-0.937938
-0.937941
-0.937946
-0.937952
-0.937964
-0.937974
-0.93825
-0.938285
-0.93828
-0.93828
-0.93828
-0.93828
-0.938875
-0.938875
-0.938875
-0.938878
-0.938875
-0.93877
-0.939666
-0.939893
-0.939902
-0.939891
-0.9399
-0.939895
-0.941522
-0.941516
-0.941516
-0.94152
-0.941519
-0.941092
-0.943208
-0.943938
-0.943939
-0.94394
-0.943928
-0.943944
-0.947223
-0.947219
-0.947228
-0.94723
-0.947219
-0.946
-0.949072
-0.951225
-0.951231
-0.951233
-0.951223
-0.951226
-0.955655
-0.95564
-0.955654
-0.95565
-0.955647
-0.951598
-0.967683
-0.985595
-0.991734
-0.996849
-1.00111
-1.00466
-1.0041
-1.0041
-1.0041
-1.0041
-1.00411
-1.0006
-1.00061
-1.00061
-1.00061
-1.00062
-0.996421
-0.996416
-0.996408
-0.996402
-0.996392
-0.991341
-0.991354
-0.991365
-0.991385
-0.991401
-0.985364
-0.985336
-0.985313
-0.985299
-0.985278
-0.969892
-0.969894
-0.969914
-0.969926
-0.96994
-1.05308
-1.05306
-1.05305
-1.05304
-1.05302
-1.05703
-1.05704
-1.05706
-1.05708
-1.05712
-1.05956
-1.05954
-1.05953
-1.05951
-1.0595
-1.06156
-1.06156
-1.06158
-1.06159
-1.0616
-1.0633
-1.0633
-1.06328
-1.06328
-1.06328
-1.06471
-1.06471
-1.06471
-1.06472
-1.06471
-1.06516
-1.06371
-1.06195
-1.05984
-1.05731
-1.05275
-1.05249
-1.05789
-1.06046
-1.06261
-1.06439
-1.06587
-1.00575
-1.00227
-0.998095
-0.993084
-0.987067
-0.965377
-0.902002
-0.904912
-0.929482
-0.937238
-0.943705
-0.94909
-0.953572
-0.910385
-0.904617
-0.897695
-0.889392
-0.879427
-0.851437
-0.80734
-0.841161
-0.853825
-0.86438
-0.87317
-0.880499
-0.865272
-0.856756
-0.846535
-0.834271
-0.81955
-0.78441
-0.783325
-0.818588
-0.833626
-0.846156
-0.856597
-0.865294
-0.865125
-0.856112
-0.845292
-0.832305
-0.816718
-0.781272
-0.780833
-0.817158
-0.832627
-0.845517
-0.856252
-0.8652
-0.865342
-0.865355
-0.865365
-0.86537
-0.865377
-0.856627
-0.856623
-0.856619
-0.856613
-0.856604
-0.846118
-0.846121
-0.846123
-0.846123
-0.846125
-0.83352
-0.833522
-0.833527
-0.83353
-0.833531
-0.81843
-0.81842
-0.818413
-0.818401
-0.818395
-0.780359
-0.780388
-0.780424
-0.780477
-0.780529
-0.716453
-0.716183
-0.715953
-0.715767
-0.715604
-0.630725
-0.631254
-0.631896
-0.632646
-0.633566
-0.634421
-0.54165
-0.537039
-0.534651
-0.532655
-0.531007
-0.52961
-0.420801
-0.423729
-0.427265
-0.431508
-0.436583
-0.447952
-0.370542
-0.352048
-0.344549
-0.338304
-0.33309
-0.32874
-0.270591
-0.275933
-0.282343
-0.29003
-0.299254
-0.325123
-0.31766
-0.287999
-0.278397
-0.270391
-0.26372
-0.258158
-0.220274
-0.22655
-0.234081
-0.243116
-0.253951
-0.292169
-0.251771
-0.218287
-0.207725
-0.198915
-0.191567
-0.185445
-0.184868
-0.190844
-0.198009
-0.206607
-0.216917
-0.249828
-0.212895
-0.182756
-0.172259
-0.163515
-0.15622
-0.150144
-0.150114
-0.156159
-0.163407
-0.172101
-0.182538
-0.212398
-0.212337
-0.182539
-0.172118
-0.163435
-0.156201
-0.150164
-0.116924
-0.123579
-0.131564
-0.141147
-0.152647
-0.189885
-0.189961
-0.152714
-0.141213
-0.131628
-0.123643
-0.116985
-0.117025
-0.123687
-0.131674
-0.141264
-0.152765
-0.190031
-0.190082
-0.152799
-0.141295
-0.131703
-0.123711
-0.117052
-0.117064
-0.123724
-0.13172
-0.141311
-0.15282
-0.190112
-0.190129
-0.152831
-0.14132
-0.131726
-0.12373
-0.117071
-0.0849214
-0.0912247
-0.0987927
-0.107872
-0.118764
-0.152151
-0.152161
-0.118769
-0.107875
-0.0987928
-0.0912271
-0.0849221
-0.0560572
-0.0624665
-0.0701593
-0.0793865
-0.0904595
-0.120031
-0.101989
-0.066808
-0.0553017
-0.045709
-0.0377145
-0.0310578
-0.00476414
-0.0105891
-0.017573
-0.0259559
-0.0360147
-0.0678564
-0.0395714
-0.0104717
-0.000267526
0.00823408
0.0153242
0.0212266
0.0404799
0.0333223
0.0247332
0.0144303
0.00206351
-0.0332005
-0.0253047
0.0119152
0.0262586
0.038208
0.0481671
0.0564719
0.0735838
0.0653706
0.0555172
0.0436901
0.0294973
-0.0103936
0.00801638
0.0509891
0.0630243
0.0730559
0.0814131
0.0883774
0.0973809
0.0917039
0.0848879
0.0767115
0.0669019
0.0329897
0.0475539
0.0727192
0.0826952
0.0910095
0.0979383
0.103712
0.109364
0.102495
0.0942589
0.084383
0.0725443
0.0439268
0.0126065
0.0335603
0.0406498
0.0466357
0.0517554
0.0562024
-0.0413179
-0.0440464
-0.0467766
-0.0495068
-0.0522365
-0.0611882
-0.149596
-0.145061
-0.144377
-0.143694
-0.143012
-0.142328
-0.243621
-0.243699
-0.243775
-0.243852
-0.24393
-0.245957
-0.34535
-0.344582
-0.344582
-0.344582
-0.344582
-0.344582
-0.44502
-0.44502
-0.44502
-0.44502
-0.44502
-0.445272
-0.545209
-0.545186
-0.545186
-0.545186
-0.545186
-0.545186
-0.645622
-0.645622
-0.645622
-0.645622
-0.645622
-0.645446
-0.746617
-0.747118
-0.747118
-0.747118
-0.747118
-0.747118
-0.850788
-0.850788
-0.850788
-0.850788
-0.850788
-0.849649
-0.956301
-0.957476
-0.957499
-0.957523
-0.957546
-0.957571
-0.953896
-0.953896
-0.953896
-0.953896
-0.953897
-0.952397
-1.06159
-1.06194
-1.06201
-1.06207
-1.06214
-1.06221
-1.05447
-1.05447
-1.05447
-1.05447
-1.05447
-1.05328
-1.04648
-1.04764
-1.04764
-1.04764
-1.04764
-1.04764
-1.04273
-1.04273
-1.04273
-1.04273
-1.04273
-1.04215
-1.03936
-1.03962
-1.03962
-1.03962
-1.03962
-1.03962
-1.03781
-1.03781
-1.03781
-1.03781
-1.03781
-1.0377
-1.03679
-1.03682
-1.03682
-1.03682
-1.03682
-1.03682
-1.03632
-1.03632
-1.03632
-1.03632
-1.03632
-1.03632
-1.03611
-1.03609
-1.03609
-1.03609
-1.03609
-1.03608
-1.03598
-1.03599
-1.03599
-1.03599
-1.036
-1.03603
-1.03607
-1.03605
-1.03604
-1.03603
-1.03603
-1.03603
-1.03626
-1.03626
-1.03626
-1.03626
-1.03626
-1.03625
-1.03658
-1.03664
-1.03664
-1.03665
-1.03664
-1.03664
-1.03731
-1.03731
-1.03731
-1.03731
-1.03731
-1.03717
-1.03813
-1.03838
-1.03838
-1.03838
-1.03838
-1.03838
-1.03999
-1.04
-1.03999
-1.03999
-1.03999
-1.03957
-1.04152
-1.0422
-1.0422
-1.0422
-1.0422
-1.0422
-1.04498
-1.04498
-1.04498
-1.04498
-1.04498
-1.04384
-1.04722
-1.04852
-1.04852
-1.04851
-1.04853
-1.04851
-1.13706
-1.13705
-1.13706
-1.13705
-1.13706
-1.13809
-1.13575
-1.13331
-1.13222
-1.1313
-1.13053
-1.1299
-1.1296
-1.12959
-1.1296
-1.12959
-1.1296
-1.1302
-1.13019
-1.13021
-1.1302
-1.13022
-1.13096
-1.13094
-1.13093
-1.13092
-1.13092
-1.13179
-1.13179
-1.13181
-1.13183
-1.13184
-1.13291
-1.13289
-1.13286
-1.13284
-1.13283
-1.13494
-1.13494
-1.13495
-1.13497
-1.13499
-1.22013
-1.22012
-1.2201
-1.2201
-1.22008
-1.20669
-1.20671
-1.20673
-1.20674
-1.20678
-1.20236
-1.20233
-1.20232
-1.20231
-1.20229
-1.19863
-1.19864
-1.19865
-1.19865
-1.19867
-1.1956
-1.19559
-1.19559
-1.19559
-1.19558
-1.19303
-1.19303
-1.19303
-1.19304
-1.19304
-1.19332
-1.19591
-1.19901
-1.20274
-1.20721
-1.22253
-1.22524
-1.20709
-1.20276
-1.19915
-1.19614
-1.19363
-1.13046
-1.13111
-1.13189
-1.13282
-1.13394
-1.13686
-1.13742
-1.13419
-1.13311
-1.13221
-1.13146
-1.13083
-1.06637
-1.06494
-1.06323
-1.06117
-1.0587
-1.05288
-0.965326
-0.98918
-0.99479
-0.99946
-1.00335
-1.0066
-1.00705
-1.00391
-1.00013
-0.995605
-0.990171
-0.967145
-0.907491
-0.931556
-0.938837
-0.944904
-0.949958
-0.954165
-0.910584
-0.905134
-0.898596
-0.890747
-0.881333
-0.852492
-0.80783
-0.842669
-0.854921
-0.865129
-0.873636
-0.880726
-0.865383
-0.857036
-0.847018
-0.834996
-0.820569
-0.78536
-0.784271
-0.819618
-0.834353
-0.84663
-0.85686
-0.865382
-0.880722
-0.873288
-0.864372
-0.853667
-0.840821
-0.805538
-0.805017
-0.839319
-0.852597
-0.863657
-0.872874
-0.880553
-0.880312
-0.872116
-0.862278
-0.85047
-0.836297
-0.802511
-0.79876
-0.796096
-0.795938
-0.795801
-0.795696
-0.795601
-0.834183
-0.84899
-0.861329
-0.871613
-0.880178
-0.880176
-0.871616
-0.861339
-0.849005
-0.834207
-0.834231
-0.84902
-0.861348
-0.871616
-0.880169
-0.880162
-0.871615
-0.861356
-0.84904
-0.834263
-0.834296
-0.849063
-0.861365
-0.871617
-0.880154
-0.880198
-0.871697
-0.861491
-0.849243
-0.834542
-0.871365
-0.883651
-0.893895
-0.902422
-0.909531
-0.909206
-0.902071
-0.893516
-0.883237
-0.87091
-0.870856
-0.883204
-0.893497
-0.902068
-0.909209
-0.909208
-0.902059
-0.893472
-0.883178
-0.870816
-0.870777
-0.883154
-0.893459
-0.902053
-0.909209
-0.90921
-0.902046
-0.893451
-0.883134
-0.870752
-0.837141
-0.837265
-0.837409
-0.837578
-0.837787
-0.840825
-0.812869