/*--------------------------------*- C++ -*----------------------------------*\
| =========                 |                                                 |
| \\      /  F ield         | OpenFOAM: The Open Source CFD Toolbox           |
|  \\    /   O peration     | Version:  2212                                  |
|   \\  /    A nd           | Website:  www.openfoam.com                      |
|    \\/     M anipulation  |                                                 |
\*---------------------------------------------------------------------------*/
FoamFile
{
    version     2.0;
    format      ascii;
    arch        "LSB;label=32;scalar=64";
    class       volScalarField;
    location    "60";
    object      T;
}
// * * * * * * * * * * * * * * * * * * * * * * * * * * * * * * * * * * * * * //

dimensions      [0 0 0 1 0 0 0];

internalField   nonuniform List<scalar> 
248319
(
300
300
300
300
300
300
300
300
300
300
300
300
300
300
300
300
300
300
300
300
300
300
300
300
300
300
300
300
300
300
300
300
300
300
300
300
300
300
300
300
300
300
300
300
300
300
300
300
300
300
300
300
300
300
300
300
300
300
300
300
300
300
300
300
300
300
300
300
300
300
300
300
300
300
300
300
300
300
300
300
300
300
300
300
300
300
300
300
300
300
300
300
300
300
300
300
300
300
300
300
300
300
300
300
300
300
300
300
300
300
300
300
300
300
300
300
300
300
300
300
300
300
300
300
300
300
300
300
300
300
300
300
300
300
300
300
300
300
300
300
300
300
300
300
300
300.001
300
300
300
300
300
300
300
300
300
300
300.001
300.001
300
300
300
300
300
300
300
300
300
300
300.001
300
300
300
300
300
300
300
300
300
300
300
300
300
300
300
300
300
300
300
300
300
300
300
300
300
300
300
300
300
300
300
300
300
300
300
300
300
300
300
300
300
300
300
300
300
300
300
300
300
300
300
300
300
300
300
300
300
300
300
300
300
300
300
300
300
300
300
300
300
300
300
300
300
300
300
300
300
300
300
300
300
300
300
300
300.001
300
300
300
300
300
300
300
300
300
300
300.001
300.002
300
300
300
300
300
300
300
300
300
300.001
300.003
300.002
300.001
300
300
300
300
300
300
300
300
300.001
300.003
300.002
300
300
300
300
300
300
300
300
300
300
300.001
300
300
300
300
300
300
300
300
300
300
300
300
300
300
300
300
300
300
300
300
300
300
300
300
300
300
300
300
300
300
300
300
300
300
300
300
300
300
300
300
300
300
300
300
300
300
300
300
300
300
300
300
300
300
300
300
300
300
300
300
300
300
300
300
300
300
300
300
300
300
300
300
300
300
300
300
300
300
300
300
300
300
300
300
300
300
300
300
300
300
300
300
300
300
300
300.001
300.001
300
300
300
300
300
300
300
300
300
300.001
300.001
300.001
300.001
300
300
300
300
300
300
300
300
300
300.001
300.003
300.001
300
300
300
300
300
300
300
300.001
300.001
300.005
300.009
300.002
300.001
300.001
300
300
300
300
300
300.001
300.001
300.005
300.007
300.002
300.001
300.001
300
300
300
300
300
300.001
300.001
300.004
300.002
300.001
300
300
300
300
300
300
300
300
300
300.001
300.001
300
300
300
300
300
300
300
300
300
300
300
300
300
300
300
300
300
300
300
300
300
300
300
300
300
300
300
300
300
300
300
300
300
300
300
300
300
300
300
300
300
300
300
300
300
300
300
300
300
300
300
300
300
300
300
300
300
300
300
300
300
300
300
300
300
300
300
300
300
300
300
300
300
300
300
300
300
300
300
300
300
300
300
300
300
300
300
300
300
300
300
300
300
300
300
300
300
300
300
300
300
300
300
300
300
300
300.001
300.006
300.002
300.001
300.001
300.001
300.001
300.001
300.001
300.001
300.001
300.002
300.006
300.005
300.002
300.001
300.001
300.001
300.001
300.001
300.001
300.001
300.001
300.002
300.004
300.003
300.002
300.001
300.001
300
300
300
300
300
300
300.001
300.003
300.004
300.001
300.001
300
300
300
300.001
300.001
300.001
300.001
300.002
300.008
300.012
300.004
300.002
300.001
300.001
300.001
300.001
300.001
300.002
300.003
300.005
300.017
300.013
300.004
300.002
300.001
300.001
300.001
300.001
300.001
300.002
300.003
300.005
300.018
300.01
300.003
300.002
300.001
300.001
300.001
300
300
300.001
300.001
300.002
300.005
300.003
300.001
300
300
300
300
300
300
300
300
300
300.002
300.001
300
300
300
300
300
300
300
300
300
300
300
300
300
300
300
300
300
300
300
300
300
300
300
300
300
300
300
300
300
300
300
300
300
300
300
300
300
300
300
300
300
300
300
300
300
300
300
300
300
300
300
300
300
300
300
300
300
300
300
300
300
300
300
300
300
300
300
300
300
300
300
300
300
300
300
300
300
300
300
300
300
300
300
300
300
300
300
300
300
300
300
300
300
300
300
300
300
300
300
300
300
300
300
300
300
300
300
300
300
300
300
300
300
300
300
300
300
300
300.001
300.006
300.002
300.001
300.001
300.002
300.002
300.006
300.005
300.006
300.008
300.012
300.025
300.021
300.01
300.006
300.004
300.003
300.003
300.002
300.003
300.003
300.005
300.009
300.017
300.014
300.008
300.005
300.003
300.002
300.002
300.002
300.002
300.003
300.004
300.007
300.011
300.011
300.004
300.003
300.002
300.001
300.001
300.001
300.001
300.001
300.002
300.004
300.006
300.01
300.004
300.002
300.001
300.001
300.001
300.001
300.002
300.002
300.004
300.007
300.017
300.025
300.01
300.006
300.003
300.002
300.002
300.003
300.003
300.005
300.008
300.013
300.034
300.045
300.017
300.01
300.006
300.004
300.003
300.002
300.002
300.003
300.004
300.007
300.023
300.031
300.01
300.006
300.003
300.002
300.002
300.001
300.002
300.002
300.004
300.007
300.023
300.013
300.005
300.003
300.001
300.001
300.001
300
300.001
300.001
300.001
300.002
300.006
300.003
300.001
300
300
300
300
300
300
300
300
300.001
300.002
300.001
300
300
300
300
300
300
300
300
300
300
300.001
300.001
300
300
300
300
300
300
300
300
300
300
300.001
300
300
300
300
300
300
300
300
300
300
300
300
300
300
300
300
300
300
300
300
300
300
300
300
300
300
300
300
300
300
300
300
300
300
300
300
300
300
300
300
300
300
300
300
300
300
300
300
300
300
300
300
300
300
300
300
300
300
300
300
300
300
300
300
300
300
300
300
300
300
300
300
300
300
300
300
300
300
300
300
300
300
300
300
300
300
300
300
300
300
300
300
300
300
300
300
300
300
300
300
300
300
300.001
300.001
300
300
300
300.001
300.007
300.003
300.003
300.005
300.007
300.009
300.022
300.019
300.014
300.013
300.017
300.03
300.08
300.043
300.028
300.026
300.032
300.037
300.011
300.011
300.013
300.018
300.03
300.057
300.043
300.023
300.014
300.009
300.006
300.006
300.005
300.006
300.008
300.012
300.019
300.033
300.024
300.015
300.01
300.007
300.005
300.004
300.003
300.004
300.005
300.007
300.011
300.017
300.013
300.005
300.003
300.002
300.002
300.001
300.002
300.002
300.003
300.004
300.007
300.02
300.017
300.006
300.004
300.002
300.002
300.002
300.002
300.003
300.004
300.006
300.01
300.026
300.038
300.014
300.008
300.005
300.004
300.003
300.005
300.005
300.007
300.011
300.019
300.051
300.067
300.025
300.015
300.01
300.007
300.006
300.009
300.009
300.013
300.02
300.033
300.085
300.058
300.022
300.013
300.008
300.005
300.005
300.006
300.007
300.01
300.017
300.029
300.071
300.039
300.013
300.007
300.004
300.003
300.003
300.002
300.002
300.003
300.006
300.01
300.03
300.017
300.007
300.004
300.002
300.001
300.001
300.001
300.001
300.001
300.002
300.003
300.007
300.004
300.001
300.001
300
300
300
300
300
300
300
300.001
300.002
300.001
300
300
300
300
300
300
300
300
300
300
300.001
300.001
300
300
300
300
300
300
300
300
300
300
300.001
300.001
300
300
300
300
300
300
300
300
300
300
300
300
300
300
300
300
300
300
300
300
300
300
300
300
300
300
300
300
300
300
300
300
300
300
300
300
300
300
300
300
300
300
300
300
300
300
300
300
300
300
300
300
300
300
300
300
300
300
300
300
300
300
300
300
300
300
300
300
300
300
300
300
300
300
300
300
300
300
300
300
300
300
300
300
300
300
300
300
300
300
300
300
300
300
300
300
300
300
300
300
300
300
300
300
300
300
300
300
300
300
300
300
300
300.007
300.005
300.003
300.001
300
300.001
300.007
300.005
300.008
300.016
300.027
300.033
300.074
300.062
300.039
300.025
300.027
300.042
300.109
300.067
300.051
300.062
300.095
300.114
300.143
300.118
300.081
300.074
300.098
300.142
300.115
300.068
300.044
300.037
300.042
300.047
300.016
300.017
300.021
300.031
300.051
300.087
300.066
300.039
300.025
300.016
300.012
300.011
300.009
300.01
300.014
300.021
300.032
300.05
300.038
300.024
300.016
300.011
300.008
300.007
300.004
300.005
300.006
300.009
300.014
300.033
300.025
300.015
300.01
300.006
300.005
300.004
300.004
300.004
300.006
300.009
300.015
300.036
300.054
300.022
300.013
300.009
300.007
300.006
300.003
300.003
300.004
300.007
300.011
300.03
300.042
300.015
300.009
300.006
300.005
300.004
300.006
300.007
300.009
300.013
300.021
300.056
300.072
300.027
300.017
300.011
300.009
300.008
300.01
300.011
300.014
300.021
300.034
300.09
300.109
300.043
300.027
300.018
300.014
300.012
300.011
300.012
300.017
300.026
300.043
300.103
300.126
300.054
300.033
300.021
300.015
300.013
300.008
300.009
300.013
300.022
300.037
300.086
300.048
300.017
300.01
300.006
300.004
300.004
300.003
300.003
300.005
300.008
300.013
300.038
300.021
300.009
300.005
300.003
300.002
300.002
300.001
300.001
300.001
300.002
300.004
300.008
300.004
300.002
300.001
300
300
300
300
300
300
300
300.001
300.003
300.002
300
300
300
300
300
300
300
300
300
300
300.001
300.001
300
300
300
300
300
300
300
300
300
300
300.001
300.001
300
300
300
300
300
300
300
300
300
300
300
300
300
300
300
300
300
300
300
300
300
300
300
300
300
300
300
300
300
300
300
300
300
300
300
300
300
300
300
300
300
300
300
300
300
300
300
300
300
300
300
300
300
300
300
300
300
300
300
300
300
300
300
300
300
300
300
300
300
300
300
300
300
300
300
300
300
300
300
300
300
300
300
300
300
300
300
300
300
300
300
300
300
300
300
300
300
300
300
300
300
300
300
300
300
300
300
300
300
300
300
300
300
300
300
300
300
300
300
300.001
300
300
300
300
300.001
300.02
300.016
300.008
300.002
300.001
300.002
300.008
300.008
300.017
300.039
300.069
300.082
300.179
300.148
300.083
300.042
300.037
300.055
300.135
300.084
300.073
300.125
300.246
300.314
300.611
300.419
300.165
300.088
300.097
300.133
300.161
300.117
300.167
300.545
301.383
301.85
306.095
313.432
334.262
380.711
453.989
451.078
373.632
326.527
309.011
304.051
301.426
303.896
316.763
362.67
447.802
441.452
349.699
309.828
301.413
300.347
300.171
300.708
306.201
339.078
433.279
426.549
333.037
304.766
300.563
300.193
300.339
300.715
304.846
332.098
424.74
423.923
331.461
304.721
300.715
300.347
300.324
300.307
300.324
300.61
303.972
328.613
420.84
420.299
327.54
303.474
300.426
300.196
300.163
300.511
304.617
333.564
429.584
441.351
345.292
307.95
301.112
300.319
301.678
304.064
316.272
362.486
452.426
459.882
380.566
330.323
311.968
306.234
310.364
319.433
342.197
393.34
463.534
463.2
392.51
341.078
318.205
309.259
305.512
311.002
329.095
379.469
459.307
450.913
360.581
315.022
303.479
301.424
300.298
300.999
307.197
342.626
438.943
426.955
331.373
304.155
300.473
300.166
300.208
300.4
303.089
325.595
417.666
417.508
325.963
303.404
300.596
300.369
300.338
300.189
300.13
300.149
300.44
301.322
302.104
300.155
300.124
300.086
300.085
300.116
300.168
300.137
300.09
300.061
300.046
300.044
300.046
300.021
300.023
300.03
300.046
300.071
300.109
300.086
300.057
300.038
300.025
300.018
300.016
300.013
300.015
300.02
300.03
300.045
300.068
300.056
300.028
300.018
300.012
300.009
300.008
300.009
300.01
300.014
300.022
300.033
300.052
300.035
300.013
300.008
300.006
300.005
300.004
300.005
300.006
300.007
300.01
300.017
300.047
300.046
300.016
300.01
300.007
300.005
300.005
300.007
300.008
300.01
300.015
300.023
300.064
300.085
300.031
300.019
300.013
300.01
300.009
300.008
300.009
300.012
300.018
300.03
300.074
300.098
300.037
300.022
300.014
300.011
300.01
300.012
300.013
300.018
300.027
300.045
300.123
300.149
300.052
300.031
300.021
300.016
300.015
300.017
300.019
300.025
300.038
300.062
300.177
300.206
300.074
300.044
300.029
300.022
300.02
300.015
300.017
300.022
300.032
300.052
300.129
300.151
300.063
300.039
300.026
300.019
300.018
300.017
300.019
300.026
300.041
300.068
300.149
300.103
300.047
300.027
300.017
300.011
300.01
300.005
300.005
300.008
300.013
300.022
300.059
300.046
300.018
300.01
300.006
300.004
300.003
300.002
300.003
300.004
300.007
300.012
300.026
300.01
300.005
300.003
300.002
300.001
300.001
300
300
300.001
300.001
300.002
300.005
300.004
300.001
300.001
300
300
300
300
300
300
300
300.001
300.002
300.001
300
300
300
300
300
300
300
300
300
300
300.001
300.001
300.001
300
300
300
300
300
300
300
300
300
300.001
300.001
300
300
300
300
300
300
300
300
300
300
300
300
300
300
300
300
300
300
300
300
300
300
300
300
300
300
300
300
300
300
300
300
300
300
300
300
300
300
300
300
300
300
300
300
300
300
300
300
300
300
300
300
300
300
300
300
300
300
300
300
300
300
300
300
300
300
300
300
300
300
300
300
300
300
300
300
300
300
300
300
300
300
300
300
300
300
300
300
300
300
300
300
300
300
300
300
300
300
300
300
300
300
300
300
300
300
300
300
300
300
300
300
300
300
300
300
300
300
300
300
300
300
300
300
300
300.001
300.001
300.001
300
300
300.001
300.002
300.001
300.005
300.015
300.028
300.034
300.135
300.116
300.068
300.028
300.011
300.008
300.062
300.044
300.059
300.127
300.224
300.27
300.405
300.327
300.184
300.094
300.095
300.156
300.171
300.211
300.763
306.572
341.03
437.89
445.212
450.665
452.488
448.666
447.909
371.526
371.127
370.891
361.919
351.462
310.981
316.137
321.078
326.839
329.383
311.514
309.195
305.531
303.358
301.689
300.294
300.781
301.931
303.897
305.061
301.764
301.42
300.659
300.216
300.127
300.282
300.484
300.875
301.489
301.733
304.23
303.917
303.019
302.713
301.745
306.334
308.53
308.066
309.158
309.517
324.34
325.204
325.904
327.063
322.572
369.207
375.57
375.253
366.698
363.461
443.293
445.967
454.7
456.324
453.803
447.197
355.801
314.593
303.226
300.753
300.219
300.365
300.454
301.723
310.093
346.509
439.868
427.255
333.699
305.124
300.735
300.349
300.348
300.311
300.503
300.541
301.141
306.645
337.367
428.834
434.06
341.366
307.672
301.303
300.578
300.524
300.474
300.524
301.07
306.316
337.345
430.648
424.926
331.934
304.944
300.997
300.618
300.556
300.612
300.683
301.182
305.955
335.397
428.389
418.551
327.261
303.782
300.657
300.387
300.353
300.186
300.201
300.393
302.954
324.322
414.384
421.547
432.728
444.686
454.082
459.165
386.459
373.134
353.833
337.912
328.442
303.665
306.12
312.591
324.468
335.05
313.976
308.302
302.809
300.843
300.421
300.153
300.259
301.116
303.98
306.733
301.341
300.896
300.364
300.139
300.122
300.112
300.079
300.081
300.115
300.14
300.043
300.042
300.045
300.06
300.091
300.138
300.109
300.07
300.046
300.03
300.022
300.02
300.017
300.019
300.026
300.04
300.059
300.085
300.067
300.046
300.032
300.021
300.015
300.014
300.007
300.008
300.01
300.015
300.024
300.056
300.07
300.024
300.015
300.01
300.007
300.006
300.007
300.007
300.01
300.015
300.026
300.071
300.069
300.028
300.016
300.01
300.007
300.007
300.009
300.01
300.013
300.021
300.036
300.09
300.063
300.023
300.014
300.01
300.008
300.007
300.009
300.009
300.012
300.018
300.028
300.08
300.096
300.033
300.021
300.014
300.011
300.01
300.011
300.012
300.015
300.023
300.037
300.105
300.126
300.043
300.027
300.018
300.014
300.013
300.015
300.016
300.021
300.031
300.05
300.147
300.167
300.057
300.035
300.024
300.018
300.017
300.019
300.021
300.027
300.04
300.065
300.186
300.205
300.073
300.044
300.029
300.022
300.02
300.023
300.025
300.033
300.052
300.088
300.235
300.265
300.104
300.059
300.037
300.028
300.025
300.021
300.022
300.03
300.045
300.074
300.173
300.175
300.084
300.051
300.031
300.022
300.02
300.013
300.015
300.021
300.035
300.058
300.12
300.071
300.027
300.015
300.009
300.006
300.006
300.005
300.005
300.008
300.013
300.023
300.056
300.032
300.016
300.009
300.005
300.003
300.003
300.001
300.002
300.002
300.004
300.007
300.012
300.006
300.003
300.002
300.001
300.001
300
300
300
300
300.001
300.001
300.004
300.002
300.001
300
300
300
300
300
300
300
300
300
300.001
300.001
300
300
300
300
300
300
300
300
300
300.001
300.001
300.001
300.001
300
300
300
300
300
300
300
300
300
300.001
300
300
300
300
300
300
300
300
300
300
300
300
300
300
300
300
300
300
300
300
300
300
300
300
300
300
300
300
300
300
300
300
300
300
300
300
300
300
300
300
300
300
300
300
300
300
300
300
300
300
300
300
300
300
300
300
300
300
300
300
300
300
300
300
300
300
300
300
300
300
300
300
300
300
300
300
300
300
300
300
300
300
300
300
300
300
300
300
300
300
300
300
300
300
300
300
300
300
300
300
300
300
300
300
300
300
300
300
300
300
300
300
300
300
300
300
300
300
300
300
300
300
300
300
300
300
300
300
300
300
300
300
300.001
300
300
300.001
300.002
300.002
300.045
300.038
300.021
300.007
300.002
300.002
300.008
300.014
300.04
300.094
300.154
300.181
300.348
300.297
300.177
300.081
300.05
300.064
300.169
300.116
300.148
300.276
300.429
300.522
300.635
300.545
300.358
300.232
300.178
300.202
300.502
302.731
308.593
326.341
372.083
454.757
459.198
457.862
450.901
440.346
438.451
355.398
358.687
370.981
381.165
382.751
334.383
332.919
325.928
320.998
319.231
307.261
307.789
308.83
312.196
312.901
304.519
304.557
303.422
303.424
303.344
301.661
301.532
301.035
300.817
300.68
302.592
301.858
301.387
301.611
301.659
303.065
303.369
304.206
307.874
311.257
323.093
316.996
309.826
307.28
306.443
317.651
319.507
326.627
338.475
347.313
393.403
384.555
370.272
356.927
354.476
439.746
440.961
451.46
458.848
462.622
461.719
391.223
345.867
322.203
310.714
302.74
302.332
308.451
318.07
339.308
383.265
457.966
449.113
362.027
319.778
305.506
301.558
300.479
300.724
301.598
305.256
319.368
362.055
449.212
439.73
346.957
310.188
301.769
300.623
300.608
300.562
300.558
301.037
305.925
334.925
426.139
427.806
337.638
307.146
301.482
300.865
300.874
300.731
300.81
301.673
308.48
341.856
432.053
441.314
350.222
310.962
302.1
300.896
300.773
300.69
300.801
301.633
308.504
343.787
436.357
429.335
336.326
306.421
301.519
300.97
300.856
300.976
301.126
301.872
307.96
341.024
433.67
444.689
352.549
311.834
302.667
301.367
301.113
300.68
300.801
301.673
308.833
345.32
439.48
427.407
333.103
305.115
300.843
300.427
300.381
300.195
300.121
300.129
300.305
300.66
300.885
305.314
311.999
333.129
381.898
455.929
452.236
372.02
324.295
307.639
303.415
301.102
302.895
313.386
356.051
445.87
436.375
341.052
306.861
300.935
300.272
300.155
300.469
304.187
331.275
426.278
419.59
327.098
303.472
300.448
300.21
300.233
300.613
304.928
334.107
430.488
439.696
341.677
306.588
300.76
300.187
300.391
301.583
310.61
352.484
446.982
450.639
364.92
317.44
303.907
301.44
303.444
308.163
325.841
372.443
450.961
452.151
376.537
330.96
311.19
304.682
300.956
300.769
300.391
300.158
300.126
300.208
300.171
300.116
300.084
300.084
300.113
300.136
300.098
300.088
300.074
300.085
300.121
300.176
300.142
300.095
300.064
300.045
300.037
300.036
300.023
300.026
300.037
300.056
300.083
300.118
300.103
300.065
300.043
300.028
300.019
300.017
300.018
300.021
300.031
300.047
300.07
300.099
300.074
300.045
300.029
300.019
300.013
300.012
300.013
300.014
300.021
300.032
300.048
300.072
300.092
300.048
300.028
300.017
300.012
300.011
300.014
300.016
300.022
300.036
300.061
300.116
300.085
300.03
300.018
300.012
300.009
300.008
300.008
300.009
300.012
300.019
300.032
300.088
300.104
300.037
300.022
300.014
300.011
300.01
300.01
300.011
300.015
300.024
300.043
300.108
300.123
300.046
300.026
300.017
300.012
300.011
300.012
300.014
300.018
300.027
300.047
300.136
300.108
300.037
300.023
300.016
300.013
300.012
300.013
300.014
300.018
300.026
300.041
300.121
300.132
300.045
300.028
300.02
300.015
300.014
300.016
300.017
300.021
300.031
300.049
300.142
300.151
300.053
300.033
300.022
300.018
300.016
300.017
300.019
300.024
300.034
300.056
300.158
300.22
300.08
300.048
300.031
300.024
300.022
300.023
300.025
300.033
300.051
300.087
300.235
300.292
300.119
300.067
300.041
300.03
300.027
300.023
300.025
300.033
300.052
300.085
300.196
300.204
300.103
300.061
300.037
300.026
300.023
300.015
300.017
300.025
300.042
300.071
300.139
300.084
300.033
300.019
300.011
300.008
300.007
300.006
300.007
300.01
300.017
300.029
300.067
300.037
300.02
300.012
300.007
300.004
300.004
300.002
300.002
300.003
300.005
300.008
300.014
300.007
300.003
300.002
300.001
300.001
300.001
300
300
300.001
300.001
300.002
300.005
300.003
300.001
300.001
300
300
300
300
300
300
300
300.001
300.002
300.001
300.001
300
300
300
300
300
300
300
300
300.001
300.001
300.001
300.001
300
300
300
300
300
300
300
300
300
300.001
300
300
300
300
300
300
300
300
300
300
300
300
300
300
300
300
300
300
300
300
300
300
300
300
300
300
300
300
300
300
300
300
300
300
300
300
300
300
300
300
300
300
300
300
300
300
300
300
300
300
300
300
300
300
300
300
300
300
300
300
300
300
300
300
300
300
300
300
300
300
300
300
300
300
300
300
300
300
300
300
300
300
300
300
300
300
300
300
300
300
300
300
300
300
300
300
300
300
300
300
300
300
300
300
300
300
300
300
300
300
300
300
300
300
300
300
300
300
300
300
300
300
300
300
300
300
300
300
300
300
300
300
300
300
300
300
300
300
300
300
300
300
300
300
300.001
300
300
300.001
300.003
300.004
300.057
300.048
300.028
300.01
300.002
300.002
300.007
300.017
300.051
300.119
300.19
300.218
300.434
300.372
300.229
300.108
300.059
300.064
300.058
300.07
300.14
300.289
300.449
300.515
300.777
300.684
300.499
300.512
300.646
300.678
300.639
300.623
300.56
300.638
300.835
300.928
301.366
301.471
301.679
302.985
305.554
307.864
311.067
306.661
303.579
302.11
301.849
301.842
302.528
302.493
302.641
304.561
308.947
324.41
313.329
306.903
305.185
305.366
314.602
313.096
315.76
324.946
339.29
366.784
351.731
341.077
337.821
341.967
395.563
390.336
393.961
403.508
413.798
471.665
468.288
463.699
461.971
464.567
473.199
470.616
468.96
469.987
472.601
416.31
410.85
408.867
412.399
418.415
368.248
362.845
360.561
363.598
369.731
340.663
333.007
329.353
330.078
333.261
313.964
312.609
312.835
316.553
324.998
309.887
305.329
304.168
304.517
305.123
304.301
303.94
303.699
304.566
307.473
317.211
324.545
350.822
364.267
385.836
423.568
474.696
475.673
427.483
393.944
375.325
362.919
330.669
321.236
347.629
367.31
394.86
432.406
477.576
467.647
406.758
364.455
338.501
323.064
307.561
306.602
322.758
337.966
364.092
407.164
468.186
458.137
383.067
338.706
317.593
308.265
302.412
302.808
308.728
318.2
339.658
384.457
458.965
450.273
364.191
320.904
306.123
302.131
301.138
300.958
300.943
302.223
311.261
349.123
441.074
441.632
350.327
312.207
302.812
301.376
301.437
301.251
301.22
301.913
307.916
338.951
428.667
432.919
343.293
309.335
302.115
301.123
300.992
301.078
301.243
302.62
312.023
351.965
442.302
437.743
345.892
309.616
302.152
301.146
300.958
301.238
301.41
302.123
307.633
338.887
431.401
435.373
343.569
309.397
302.675
301.727
301.47
301.698
302.12
303.705
313.573
355.04
445.859
452.769
365.993
318.731
305.175
302.674
302.09
301.324
301.71
303.906
316.96
364.242
452.385
446.209
354.184
312.108
302.34
300.962
300.794
300.43
300.483
301.099
306.738
339.244
434.589
438.305
343.46
307.981
301.307
300.536
300.477
300.21
300.121
300.163
300.376
300.656
300.772
302.927
307.753
322.283
360.99
440.541
438.706
358.787
319.907
306.262
302.367
301.195
303.602
315.846
357.694
441.406
442.496
352.564
311.062
301.666
300.394
300.184
300.824
307.201
343.969
438.689
433.186
337.104
305.633
300.692
300.238
300.343
301.594
310.317
348.901
443.037
447.568
358.766
315.876
303.532
300.767
300.947
303.936
317.464
361.843
447.945
441.837
358.116
317.392
304.395
301.407
302.088
305.534
317.153
352.261
433.775
433.404
351.399
317.23
305.928
302.301
300.82
300.742
300.474
300.222
300.158
300.241
300.257
300.135
300.103
300.119
300.17
300.199
300.144
300.128
300.094
300.085
300.117
300.207
300.176
300.115
300.079
300.068
300.078
300.085
300.036
300.037
300.043
300.06
300.091
300.146
300.131
300.072
300.048
300.032
300.023
300.021
300.022
300.027
300.039
300.06
300.09
300.131
300.186
300.096
300.056
300.034
300.023
300.02
300.018
300.021
300.03
300.05
300.082
300.138
300.133
300.077
300.046
300.027
300.018
300.016
300.012
300.013
300.019
300.03
300.05
300.094
300.119
300.061
300.037
300.024
300.017
300.015
300.019
300.021
300.028
300.044
300.072
300.146
300.138
300.073
300.043
300.026
300.019
300.017
300.01
300.011
300.014
300.021
300.034
300.098
300.113
300.038
300.023
300.016
300.012
300.011
300.011
300.012
300.016
300.024
300.039
300.115
300.127
300.041
300.025
300.017
300.013
300.012
300.014
300.015
300.019
300.028
300.044
300.14
300.144
300.047
300.028
300.019
300.014
300.013
300.015
300.016
300.02
300.03
300.049
300.15
300.155
300.051
300.032
300.022
300.017
300.016
300.018
300.019
300.024
300.035
300.055
300.159
300.163
300.06
300.038
300.026
300.021
300.019
300.021
300.023
300.029
300.042
300.065
300.167
300.163
300.058
300.035
300.024
300.019
300.017
300.018
300.019
300.025
300.036
300.06
300.167
300.245
300.092
300.053
300.034
300.025
300.023
300.029
300.033
300.045
300.074
300.133
300.316
300.218
300.096
300.057
300.037
300.027
300.024
300.027
300.031
300.043
300.072
300.123
300.237
300.158
300.084
300.05
300.03
300.02
300.018
300.008
300.01
300.014
300.023
300.04
300.098
300.079
300.036
300.021
300.012
300.008
300.007
300.005
300.005
300.008
300.015
300.025
300.043
300.015
300.01
300.006
300.004
300.002
300.002
300.001
300.001
300.001
300.002
300.004
300.008
300.006
300.002
300.001
300.001
300
300
300
300
300
300.001
300.001
300.003
300.002
300.001
300
300
300
300
300
300
300
300
300.001
300.001
300.001
300.001
300.001
300
300
300
300
300
300
300
300.001
300.001
300.001
300.001
300
300
300
300
300
300
300
300
300
300
300
300
300
300
300
300
300
300
300
300
300
300
300
300
300
300
300
300
300
300
300
300
300
300
300
300
300
300
300
300
300
300
300
300
300
300
300
300
300
300
300
300
300
300
300
300
300
300
300
300
300
300
300
300
300
300
300
300
300
300
300.001
300
300
300
300
300
300
300
300
300
300
300
300
300
300
300
300
300
300
300
300
300
300
300
300
300
300
300
300
300
300
300
300
300
300
300
300
300
300
300
300
300
300
300
300
300
300
300
300
300
300
300
300
300
300
300
300
300
300
300
300
300
300
300
300
300
300
300
300
300
300
300
300
300
300
300
300
300
300
300
300
300
300
300
300
300
300
300
300
300
300.005
300.004
300.002
300.001
300
300.001
300.001
300.003
300.013
300.034
300.056
300.066
300.249
300.221
300.143
300.064
300.021
300.006
300.005
300.025
300.077
300.164
300.247
300.281
300.583
300.523
300.355
300.181
300.084
300.051
300.045
300.1
300.221
300.415
300.593
300.665
301.093
301
300.774
300.615
300.593
300.574
307.595
304.742
302.808
301.994
301.944
302.014
302.437
302.284
302.092
302.437
303.634
305.887
313.64
306.455
304.643
304.982
306.959
308.059
320.191
319.186
317.141
315.722
316.302
318.916
320.435
315.157
313.109
313.757
316.351
317.901
320.348
318.983
315.96
313.862
313.826
317.779
318.363
320.938
324.813
327.873
342.736
336.881
330.575
326.792
325.575
344.359
346.515
352.646
363.175
373.213
419.957
409.898
398.133
391.026
388.647
459.771
460.849
464.169
469.465
473.692
473.442
419.359
371.439
339.965
324.116
321.107
333.907
361.334
409.324
469.435
463.856
396.793
350.086
327.247
317.59
315.341
323.752
343.869
389.373
460.448
459.345
386.929
341.74
322.52
314.949
325.024
329.668
345.701
388.086
459.332
461.546
395.079
356.397
342.881
341.277
332.648
329.997
332.258
337.093
352.056
391.424
459.898
462.318
396.904
358.175
342.832
336.29
326.856
325.165
365.599
378.878
398.008
431.129
476.939
478.427
434.179
395.695
367.002
346.633
316.579
315.746
346.343
366.98
396.245
435.109
478.822
468.866
408.686
365.53
339.232
323.904
307.115
307.698
323.775
338.882
365.047
408.248
468.705
459.126
384.881
340.117
318.654
309.2
303.49
301.699
302.664
306.791
321.794
365.145
450.667
451.258
366.539
323.119
307.814
303.503
302.532
302.019
301.947
303.586
313.461
351.926
442.402
429.622
340.451
308.854
302.452
301.654
301.686
301.279
301.469
302.629
310.313
344.861
433.897
443.254
353.731
313.217
303.258
301.676
301.438
301.284
301.554
302.768
310.842
347.971
439.042
433.419
341.597
309.072
302.887
301.974
301.702
302.116
302.505
303.716
311.119
346.295
437.123
447.029
357.693
315.718
305.125
303.156
302.462
303.14
304.018
306.93
320.966
367.947
453.206
445.436
361.22
319.187
306.912
304.194
303.264
302.178
302.761
305.045
316.98
359.568
445.098
444.842
358.276
315.375
303.753
301.765
301.393
300.835
301.022
302.454
312.259
353.308
443.128
442.725
353.569
312.634
302.631
301.156
301.005
300.57
300.609
301.569
309.469
348.073
442.063
449.412
362.462
319.691
305.871
302.075
300.864
300.556
300.639
300.519
300.613
300.832
300.889
301.994
304.834
314.356
347.022
432.164
432.515
348.402
315.145
305
302.005
301.86
305.406
318.626
358.344
443.001
451.11
369.238
324.79
308.001
302.682
303.73
310.346
328.678
373.722
453.869
450.866
365.735
322.561
307.088
302.311
307.091
316.247
337.358
382.248
457.894
457.138
380.524
335.248
314.762
306.239
303.34
308.94
325.567
369.151
451.39
439.835
353.934
316.914
305.313
301.991
301.814
304.251
312.871
344.6
430.8
432.897
345.327
312.561
304.017
301.761
300.92
300.901
300.758
300.734
301.233
301.749
300.638
300.401
300.255
300.235
300.314
300.361
300.271
300.237
300.17
300.172
300.227
300.34
300.297
300.176
300.127
300.133
300.171
300.194
300.145
300.133
300.106
300.103
300.144
300.242
300.2
300.124
300.088
300.083
300.098
300.106
300.067
300.066
300.067
300.083
300.118
300.167
300.135
300.088
300.059
300.043
300.037
300.036
300.019
300.02
300.026
300.037
300.057
300.122
300.163
300.066
300.041
300.026
300.019
300.017
300.019
300.021
300.03
300.048
300.079
300.177
300.215
300.096
300.058
300.036
300.026
300.023
300.025
300.028
300.041
300.068
300.118
300.235
300.173
300.099
300.061
300.037
300.026
300.023
300.021
300.024
300.034
300.057
300.096
300.171
300.208
300.114
300.067
300.04
300.028
300.025
300.027
300.031
300.044
300.072
300.125
300.238
300.172
300.08
300.049
300.032
300.023
300.021
300.02
300.022
300.03
300.049
300.083
300.162
300.189
300.093
300.054
300.033
300.024
300.022
300.013
300.014
300.018
300.026
300.043
300.129
300.15
300.05
300.031
300.021
300.016
300.015
300.019
300.02
300.026
300.037
300.06
300.176
300.154
300.049
300.031