/*--------------------------------*- C++ -*----------------------------------*\
| =========                 |                                                 |
| \\      /  F ield         | OpenFOAM: The Open Source CFD Toolbox           |
|  \\    /   O peration     | Version:  2212                                  |
|   \\  /    A nd           | Website:  www.openfoam.com                      |
|    \\/     M anipulation  |                                                 |
\*---------------------------------------------------------------------------*/
FoamFile
{
    version     2.0;
    format      ascii;
    arch        "LSB;label=32;scalar=64";
    class       volScalarField;
    location    "320";
    object      p;
}
// * * * * * * * * * * * * * * * * * * * * * * * * * * * * * * * * * * * * * //

dimensions      [0 2 -2 0 0 0 0];

internalField   nonuniform List<scalar> 
248319
(
0
0.0192818
0.0402712
0.049913
0.0579527
0.0646554
0.0702492
0.10936
0.103295
0.0960214
0.087299
0.0768399
0.051051
0.0498393
0.0761421
0.0872755
0.0965718
0.10433
0.110801
0.0812617
0.0763919
0.0706035
0.0636756
0.0553497
0.0330974
0.0137229
0.0280099
0.0342226
0.0395225
0.0440871
0.0480609
0.0626228
0.0577851
0.0519876
0.045049
0.0367405
0.0196819
-0.0539506
-0.0471944
-0.0434498
-0.0403262
-0.0377056
-0.0355298
-0.0212294
-0.0246971
-0.0288557
-0.0338335
-0.0397988
-0.05076
-0.0555461
-0.0402189
-0.0334766
-0.0278615
-0.0231811
-0.0192645
0.0634669
0.0574275
0.050179
0.041488
0.0310666
0.000543182
0.0309091
0.0593121
0.0692846
0.0775991
0.0845269
0.0903061
0.100137
0.0944897
0.0877147
0.0795876
0.069844
0.0359031
0.0499519
0.0749749
0.084738
0.0928752
0.0996592
0.105314
0.10953
0.103006
0.0951851
0.0858086
0.0745692
0.0473153
0.0190793
0.0397515
0.0463784
0.0519046
0.0565874
0.0606361
-0.0356271
-0.0383575
-0.0410877
-0.043816
-0.0465462
-0.0535699
-0.0514998
-0.0438518
-0.0414633
-0.0392229
-0.0370849
-0.0350203
-0.140382
-0.140791
-0.141182
-0.141551
-0.14189
-0.145265
-0.144829
-0.141953
-0.140973
-0.140159
-0.139478
-0.138905
-0.132514
-0.133792
-0.135337
-0.137176
-0.139385
-0.144443
-0.145908
-0.139378
-0.136705
-0.134477
-0.132607
-0.131066
-0.133987
-0.135625
-0.137603
-0.139963
-0.142807
-0.150193
-0.0695802
-0.0525777
-0.0457574
-0.0400717
-0.0353386
-0.0313762
0.0473167
0.0406964
0.0327556
0.0232247
0.0117982
-0.0194634
-0.00915986
0.031541
0.0452772
0.0567305
0.0662812
0.0742436
0.0901747
0.0833695
0.0752087
0.0654173
0.0536743
0.0104133
0.00965363
0.0523129
0.0641508
0.0740176
0.0822409
0.0890971
0.0978785
0.0922974
0.0856004
0.0775634
0.0679213
0.0344786
0.0489427
0.0735206
0.0833191
0.0914833
0.0982865
0.103954
0.109476
0.102781
0.0947543
0.0851315
0.0735948
0.0456355
0.0147863
0.0354127
0.0421982
0.0479111
0.0527928
0.0570391
-0.0392357
-0.0419518
-0.0446698
-0.0473881
-0.0501091
-0.058693
-0.147625
-0.143316
-0.142597
-0.141879
-0.141161
-0.140443
-0.13944
-0.140143
-0.140843
-0.141542
-0.142241
-0.146188
-0.244004
-0.242356
-0.242282
-0.242209
-0.242136
-0.242062
-0.242965
-0.242953
-0.24292
-0.242859
-0.242762
-0.24376
-0.243302
-0.242398
-0.242273
-0.242166
-0.242082
-0.242015
-0.238681
-0.239003
-0.239384
-0.23985
-0.240401
-0.242613
-0.242869
-0.239816
-0.239095
-0.238493
-0.237993
-0.237567
-0.238124
-0.238592
-0.239156
-0.239824
-0.240625
-0.244231
-0.24566
-0.241499
-0.240522
-0.239713
-0.239029
-0.23847
-0.136214
-0.138057
-0.140275
-0.142931
-0.146119
-0.154318
-0.0773902
-0.0596743
-0.0525204
-0.046555
-0.0415899
-0.0374436
0.0342241
0.0274468
0.0193129
0.00954865
-0.00215316
-0.0328398
-0.0252812
0.0126353
0.0266666
0.0383656
0.0481189
0.0562465
0.0568209
0.0485532
0.03863
0.0267262
0.0124454
-0.0247341
-0.00913449
0.0306839
0.0447055
0.0563919
0.0661342
0.0742553
0.0739244
0.0657226
0.0558815
0.0440756
0.0299061
-0.00976474
0.00872069
0.0514072
0.0634069
0.0734042
0.0817367
0.0886815
0.0975735
0.0919141
0.0851249
0.0769763
0.0671998
0.0335533
0.0480712
0.0729841
0.0829126
0.0911857
0.0980809
0.103824
0.109425
0.102619
0.0944559
0.0846704
0.0729376
0.0445324
0.0132904
0.0339985
0.0409714
0.0468581
0.0518983
0.0562852
-0.0407176
-0.043441
-0.0461637
-0.0488866
-0.0516111
-0.0603977
-0.148687
-0.14413
-0.143454
-0.142778
-0.142103
-0.141428
-0.242718
-0.242793
-0.24287
-0.242947
-0.243024
-0.245114
-0.244493
-0.242469
-0.242396
-0.242323
-0.242251
-0.242177
-0.343431
-0.343429
-0.343427
-0.343426
-0.343423
-0.344205
-0.343969
-0.343401
-0.343423
-0.343443
-0.343465
-0.343485
-0.344217
-0.344164
-0.3441
-0.344023
-0.343927
-0.344017
-0.343697
-0.343605
-0.343659
-0.34371
-0.34375
-0.343785
-0.341967
-0.342014
-0.342066
-0.342134
-0.342216
-0.343043
-0.342998
-0.341741
-0.341612
-0.341499
-0.341411
-0.341344
-0.341483
-0.341565
-0.341675
-0.341809
-0.341961
-0.343487
-0.343961
-0.342142
-0.341954
-0.341789
-0.341658
-0.341545
-0.340746
-0.340941
-0.341157
-0.341428
-0.341748
-0.344
-0.246042
-0.241071
-0.239693
-0.238548
-0.237585
-0.236798
-0.134495
-0.136812
-0.1396
-0.14294
-0.146943
-0.156205
-0.0818215
-0.0632992
-0.0553332
-0.0486895
-0.0431676
-0.0385454
0.0239877
0.0175088
0.0097316
0.000399731
-0.0107855
-0.0404949
-0.034169
0.00128392
0.0135992
0.0238682
0.0324285
0.039562
0.0405651
0.0333937
0.0247884
0.0144642
0.00207968
-0.0330935
-0.0329149
0.00218799
0.0145597
0.0248713
0.0334664
0.0406275
0.0567185
0.048415
0.0384506
0.0264978
0.012155
-0.0248815
-0.0250532
0.0120407
0.0263839
0.0383358
0.0482964
0.0565957
0.0737276
0.0655146
0.0556585
0.0438291
0.029637
-0.0101166
0.00827073
0.0511106
0.0631471
0.0731723
0.0815311
0.0884941
0.097448
0.0917692
0.0849577
0.0767818
0.0669677
0.0331443
0.0476862
0.0727813
0.0827515
0.0910578
0.0979807
0.103748
0.10938
0.102529
0.0943113
0.084459
0.0726478
0.0440629
0.012735
0.0335592
0.0406007
0.0465468
0.0516391
0.0560675
-0.0412014
-0.0439205
-0.0466387
-0.0493577
-0.0520783
-0.061006
-0.149295
-0.14473
-0.144051
-0.14337
-0.14269
-0.142011
-0.243181
-0.243257
-0.243334
-0.243412
-0.243488
-0.245567
-0.344865
-0.344039
-0.344038
-0.344038
-0.344038
-0.344038
-0.343716
-0.343716
-0.343716
-0.343717
-0.343717
-0.344554
-0.444339
-0.444011
-0.444011
-0.44401
-0.44401
-0.44401
-0.443844
-0.443843
-0.443843
-0.443842
-0.44384
-0.444128
-0.444033
-0.443876
-0.443889
-0.443903
-0.443917
-0.443929
-0.444482
-0.444451
-0.444413
-0.444366
-0.444311
-0.444164
-0.44403
-0.444168
-0.444226
-0.44428
-0.444325
-0.444359
-0.443426
-0.443426
-0.44342
-0.443414
-0.443409
-0.443666
-0.443746
-0.443299
-0.443295
-0.443281
-0.443278
-0.443262
-0.443619
-0.443641
-0.443638
-0.443659
-0.443676
-0.444187
-0.444752
-0.44421
-0.444175
-0.444159
-0.444149
-0.444126
-0.444412
-0.444437
-0.444473
-0.444508
-0.444564
-0.445189
-0.445386
-0.444563
-0.444447
-0.444344
-0.444269
-0.444205
-0.338864
-0.339232
-0.339652
-0.340167
-0.340782
-0.343675
-0.245827
-0.239636
-0.237454
-0.235635
-0.234108
-0.232849
-0.124289
-0.127541
-0.131455
-0.136149
-0.141786
-0.154683
-0.0824926
-0.0606166
-0.0513418
-0.0436067
-0.0371753
-0.0317895
0.0161922
0.00998868
0.00254644
-0.00638301
-0.0170936
-0.0445859
-0.0407002
-0.0115072
-0.00119926
0.00739709
0.014559
0.0205326
0.0212611
0.0153409
0.00823986
-0.000283037
-0.0105051
-0.0395445
-0.0393242
-0.0103405
-0.000140864
0.00836119
0.015445
0.0213514
0.0213248
0.0154213
0.00834573
-0.000149335
-0.010347
-0.0393606
-0.0329715
0.00217703
0.0145385
0.024841
0.0334237
0.0405763
0.040525
0.0333732
0.0247934
0.0144928
0.00213232
-0.0330697
-0.0251873
0.0119667
0.0263085
0.0382598
0.048218
0.0565152
0.0736286
0.065413
0.0555543
0.0437218
0.0295267
-0.0103002
0.00807454
0.0510037
0.063045
0.073077
0.0814408
0.0884086
0.0973922
0.0917107
0.0848932
0.076712
0.0668935
0.0329935
0.0475537
0.0727188
0.0826991
0.0910141
0.0979445
0.103718
0.109369
0.102501
0.0942649
0.0843889
0.0725505
0.0439187
0.0125788
0.033509
0.0405906
0.0465706
0.0516887
0.0561344
-0.0413569
-0.0440855
-0.0468132
-0.0495408
-0.0522697
-0.0612244
-0.149556
-0.145
-0.144317
-0.143636
-0.142953
-0.14227
-0.243454
-0.243532
-0.243609
-0.243685
-0.243763
-0.245822
-0.345085
-0.344281
-0.344281
-0.34428
-0.34428
-0.34428
-0.444452
-0.444452
-0.444452
-0.444452
-0.444453
-0.444756
-0.444564
-0.444243
-0.444243
-0.444242
-0.444242
-0.444242
-0.543817
-0.543817
-0.543817
-0.543818
-0.543818
-0.543955
-0.543766
-0.543623
-0.543623
-0.543622
-0.543622
-0.543622
-0.543498
-0.543498
-0.543499
-0.543498
-0.543498
-0.543622
-0.543583
-0.543534
-0.54354
-0.543546
-0.543553
-0.543559
-0.543936
-0.54392
-0.543902
-0.543877
-0.543849
-0.543716
-0.543733
-0.543877
-0.543916
-0.543942
-0.543962
-0.543994
-0.543656
-0.54364
-0.54365
-0.543636
-0.543629
-0.543673
-0.54399
-0.543899
-0.543893
-0.543909
-0.54389
-0.543898
-0.544637
-0.544628
-0.544648
-0.544638
-0.544643
-0.544678
-0.545675
-0.545754
-0.545754
-0.545756
-0.545745
-0.545749
-0.547079
-0.547083
-0.547088
-0.547089
-0.547096
-0.546876
-0.548132
-0.54847
-0.548444
-0.548438
-0.548418
-0.548408
-0.549297
-0.549321
-0.549361
-0.549395
-0.549445
-0.549081
-0.445323
-0.444123
-0.443849
-0.443624
-0.443439
-0.443281
-0.336048
-0.336707
-0.337478
-0.338413
-0.339539
-0.343299
-0.246646
-0.238947
-0.235632
-0.232865
-0.230551
-0.228629
-0.121739
-0.125778
-0.130643
-0.136481
-0.143484
-0.159702
-0.109575
-0.0814997
-0.0711829
-0.062577
-0.0554046
-0.049422
-0.0144949
-0.0204168
-0.0275099
-0.0360264
-0.0462389
-0.0736323
-0.068164
-0.035814
-0.0257627
-0.0173848
-0.0103964
-0.00456787
-0.00459814
-0.0104166
-0.0173906
-0.0257579
-0.0358031
-0.0676292
-0.0675486
-0.0358232
-0.0257777
-0.0174073
-0.0104317
-0.00461706
-0.00466661
-0.0104795
-0.0174571
-0.0258242
-0.0358679
-0.0676198
-0.067713
-0.0359266
-0.0258772
-0.0175045
-0.010527
-0.00471125
0.0212852
0.0153818
0.00830392
-0.000193357
-0.0103932
-0.0394415
-0.0395054
-0.0104337
-0.000232658
0.00826885
0.0153517
0.0212548
0.0404937
0.0333395
0.0247554
0.0144541
0.00209184
-0.0331403
-0.0252645
0.0119245
0.0262649
0.0382155
0.0481742
0.0564734
0.0735808
0.0653653
0.0555068
0.0436765
0.0294826
-0.0103828
0.00800339
0.050967
0.0630073
0.0730408
0.0814048
0.0883723
0.0973717
0.091689
0.0848702
0.0766895
0.0668752
0.0329536
0.0475234
0.0727047
0.0826846
0.0910006
0.0979312
0.103706
0.109362
0.102492
0.0942522
0.0843724
0.0725314
0.0438888
0.0125473
0.0335021
0.0405877
0.0465699
0.051691
0.056138
-0.0413852
-0.0441165
-0.0468452
-0.0495735
-0.0523045
-0.0612664
-0.149639
-0.145091
-0.144408
-0.143725
-0.143044
-0.14236
-0.243584
-0.243661
-0.243737
-0.243815
-0.243893
-0.245936
-0.345216
-0.344426
-0.344425
-0.344425
-0.344424
-0.344424
-0.444617
-0.444617
-0.444617
-0.444618
-0.444619
-0.444908
-0.544368
-0.544261
-0.54426
-0.544259
-0.544259
-0.544258
-0.544035
-0.544035
-0.544035
-0.544036
-0.544036
-0.544157
-0.643266
-0.643224
-0.643223
-0.643222
-0.643222
-0.643221
-0.642932
-0.642932
-0.642933
-0.642933
-0.642934
-0.642993
-0.642789
-0.642718
-0.642718
-0.642717
-0.642717
-0.642717
-0.642589
-0.64259
-0.64259
-0.64259
-0.642591
-0.642657
-0.642629
-0.642599
-0.642601
-0.642602
-0.642603
-0.642606
-0.642842
-0.642834
-0.642828
-0.64282
-0.642808
-0.642733
-0.642846
-0.642944
-0.642954
-0.642967
-0.642987
-0.642987
-0.643031
-0.64304
-0.643029
-0.64303
-0.643029
-0.643001
-0.643522
-0.643574
-0.64358
-0.643577
-0.643577
-0.643577
-0.644649
-0.644654
-0.644645
-0.644656
-0.644647
-0.644472
-0.645911
-0.646295
-0.646298
-0.646287
-0.646296
-0.646291
-0.648505
-0.648506
-0.648512
-0.648515
-0.648512
-0.647862
-0.650226
-0.651171
-0.651175
-0.65117
-0.651162
-0.651166
-0.653654
-0.653654
-0.653662
-0.653667
-0.653671
-0.652516
-0.653226
-0.654539
-0.654513
-0.654505
-0.654482
-0.654479
-0.548941
-0.549014
-0.549094
-0.549187
-0.549301
-0.549074
-0.445046
-0.443204
-0.442633
-0.442156
-0.44176
-0.441436
-0.332391
-0.333544
-0.334895
-0.336533
-0.3385
-0.343565
-0.247288
-0.235363
-0.230323
-0.22612
-0.222601
-0.219695
-0.125682
-0.130339
-0.135924
-0.142626
-0.150663
-0.170131
-0.126763
-0.0995756
-0.0890693
-0.0803093
-0.0730068
-0.0669208
-0.0553497
-0.0619174
-0.0698065
-0.0792644
-0.0906128
-0.121095
-0.102529
-0.0664792
-0.054937
-0.045312
-0.0372905
-0.0306007
-0.0307568
-0.0374094
-0.0453921
-0.0549683
-0.0664579
-0.101792
-0.101681
-0.0665617
-0.055072
-0.0454939
-0.0375106
-0.030859
-0.0309374
-0.0375899
-0.0455745
-0.0551525
-0.066646
-0.101737
-0.101829
-0.0667095
-0.0552111
-0.0456328
-0.0376455
-0.0309905
-0.031023
-0.0376777
-0.0456674
-0.0552506
-0.0667541
-0.101899
-0.06778
-0.0359698
-0.0259156
-0.0175379
-0.0105581
-0.00473923
-0.00475132
-0.0105736
-0.0175555
-0.0259385
-0.0359926
-0.06782
-0.0395426
-0.0104559
-0.000252363
0.0082472
0.0153348
0.0212373
0.0404767
0.0333204
0.0247351
0.0144318
0.00206672
-0.0331829
-0.025305
0.0119012
0.0262434
0.0381948
0.0481553
0.0564525
0.0735619
0.0653469
0.0554885
0.0436583
0.0294649
-0.010415
0.00798499
0.0509576
0.0629959
0.0730292
0.0813929
0.0883582
0.097365
0.0916822
0.0848661
0.0766869
0.0668718
0.0329516
0.0475255
0.072702
0.0826827
0.0909993
0.0979281
0.103703
0.10936
0.10249
0.0942501
0.0843699
0.0725283
0.0438987
0.0125698
0.0335362
0.0406281
0.0466138
0.0517362
0.056185
-0.0413713
-0.0441007
-0.046829
-0.0495597
-0.0522914
-0.0612536
-0.14965
-0.145109
-0.144426
-0.143742
-0.143059
-0.142377
-0.243633
-0.243709
-0.243787
-0.243866
-0.243942
-0.245977
-0.345291
-0.34451
-0.344509
-0.344508
-0.344508
-0.344508
-0.444754
-0.444754
-0.444755
-0.444755
-0.444756
-0.445036
-0.544598
-0.544507
-0.544506
-0.544505
-0.544504
-0.544504
-0.644075
-0.644076
-0.644077
-0.644079
-0.644081
-0.644061
-0.643619
-0.643603
-0.643601
-0.6436
-0.643598
-0.643598
-0.742916
-0.742917
-0.742919
-0.742922
-0.742925
-0.742862
-0.742226
-0.742241
-0.742238
-0.742236
-0.742235
-0.742234
-0.741771
-0.741772
-0.741772
-0.741773
-0.741774
-0.741792
-0.741511
-0.741475
-0.741474
-0.741474
-0.741473
-0.741473
-0.741304
-0.741304
-0.741305
-0.741305
-0.741306
-0.741349
-0.741301
-0.741268
-0.741267
-0.741266
-0.741267
-0.741267
-0.741376
-0.741375
-0.741375
-0.741376
-0.741376
-0.74136
-0.741509
-0.741553
-0.741554
-0.741557
-0.74156
-0.741562
-0.741838
-0.741839
-0.741838
-0.741837
-0.741837
-0.741788
-0.742422
-0.742543
-0.74254
-0.742535
-0.742545
-0.74254
-0.743798
-0.743792
-0.743792
-0.743789
-0.743799
-0.743523
-0.745227
-0.745741
-0.745734
-0.745745
-0.745737
-0.745743
-0.748501
-0.7485
-0.748504
-0.748496
-0.7485
-0.74765
-0.750766
-0.752045
-0.752041
-0.752041
-0.752042
-0.752043
-0.755832
-0.755846
-0.755829
-0.755842
-0.75584
-0.754161
-0.757026
-0.758317
-0.758317
-0.758303
-0.758317
-0.758302
-0.752357
-0.752363
-0.752362
-0.752378
-0.75238
-0.750923
-0.650128
-0.651438
-0.651381
-0.651347
-0.651304
-0.651286
-0.546524
-0.546698
-0.546877
-0.547095
-0.547369
-0.547564
-0.444594
-0.441791
-0.440716
-0.439818
-0.439067
-0.438454
-0.328982
-0.33079
-0.332947
-0.335547
-0.338658
-0.345476
-0.255368
-0.239723
-0.233211
-0.227782
-0.223251
-0.219482
-0.14095
-0.146832
-0.153875
-0.162336
-0.172473
-0.201279
-0.161018
-0.133936
-0.123843
-0.115424
-0.108403
-0.102543
-0.0845189
-0.0909478
-0.0986566
-0.107903
-0.11899
-0.15327
-0.152027
-0.118421
-0.107525
-0.0984391
-0.0908677
-0.0845554
-0.0556984
-0.0621144
-0.0698214
-0.0790641
-0.0901536
-0.119898
-0.11972
-0.0901936
-0.0791322
-0.069913
-0.0622304
-0.0558292
-0.0559271
-0.0623267
-0.070005
-0.0792216
-0.0902781
-0.119784
-0.119875
-0.0903505
-0.0792906
-0.0700717
-0.0623887
-0.0559894
-0.0560246
-0.0624261
-0.0701118
-0.0793356
-0.0904007
-0.119945
-0.119985
-0.0904267
-0.0793604
-0.0701322
-0.0624462
-0.0560395
-0.0310372
-0.0376918
-0.0456838
-0.0552697
-0.0667782
-0.101941
-0.101962
-0.0667844
-0.0552753
-0.0456894
-0.0376974
-0.0310373
-0.00475813
-0.0105761
-0.0175612
-0.0259442
-0.0360006
-0.0678409
-0.0395611
-0.0104642
-0.000258598
0.00824322
0.0153285
0.0212342
0.0404699
0.0333149
0.0247261
0.014422
0.00205542
-0.0332058
-0.0253264
0.0118905
0.0262339
0.0381845
0.0481456
0.0564448
0.0735559
0.0653407
0.0554807
0.0436545
0.02946
-0.0104275
0.00798243
0.0509577
0.062996
0.0730266
0.0813885
0.0883555
0.0973628
0.0916819
0.0848678
0.0766897
0.0668749
0.0329581
0.0475309
0.0727039
0.0826848
0.0910001
0.0979294
0.103703
0.109358
0.102487
0.0942484
0.0843696
0.072528
0.0439031
0.0125819
0.0335441
0.040635
0.0466219
0.0517414
0.0561881
-0.0413498
-0.044079
-0.0468082
-0.049539
-0.0522721
-0.061232
-0.149641
-0.145102
-0.144419
-0.143735
-0.14305
-0.142368
-0.243652
-0.243728
-0.243807
-0.243886
-0.243962
-0.245993
-0.345343
-0.344566
-0.344566
-0.344565
-0.344565
-0.344565
-0.444876
-0.444876
-0.444877
-0.444877
-0.444878
-0.445149
-0.54484
-0.544772
-0.544771
-0.544771
-0.54477
-0.54477
-0.64463
-0.64463
-0.644632
-0.644633
-0.644635
-0.644565
-0.74474
-0.744999
-0.744996
-0.744994
-0.744992
-0.744991
-0.743858
-0.743858
-0.74386
-0.743863
-0.743867
-0.74372
-0.843922
-0.844272
-0.84427
-0.844267
-0.844265
-0.844265
-0.842499
-0.842499
-0.842502
-0.842505
-0.842509
-0.842332
-0.8412
-0.84127
-0.841266
-0.841263
-0.841261
-0.841261
-0.84049
-0.84049
-0.840491
-0.840493
-0.840495
-0.84048
-0.840057
-0.840044
-0.840043
-0.840042
-0.840042
-0.840041
-0.839793
-0.839793
-0.839794
-0.839795
-0.839796
-0.839824
-0.839735
-0.839698
-0.839697
-0.839695
-0.839693
-0.839692
-0.839708
-0.839712
-0.839717
-0.839721
-0.839726
-0.839744
-0.839891
-0.839897
-0.839897
-0.839891
-0.839887
-0.839886
-0.840246
-0.840251
-0.840242
-0.840247
-0.840249
-0.840202
-0.840837
-0.840969
-0.840962
-0.840965
-0.84097
-0.840966
-0.842199
-0.842199
-0.842208
-0.842196
-0.842203
-0.84192
-0.843615
-0.844135
-0.844135
-0.844135
-0.844136
-0.844131
-0.84695
-0.846964
-0.84695
-0.846957
-0.84696
-0.84608
-0.849319
-0.850717
-0.850706
-0.850709
-0.850717
-0.85071
-0.855011
-0.855001
-0.855007
-0.854998
-0.85501
-0.852868
-0.856059
-0.858692
-0.858688
-0.858687
-0.858686
-0.858689
-0.859273
-0.859277
-0.859274
-0.859277
-0.859275
-0.858047
-0.901248
-0.901658
-0.901646
-0.901637
-0.901626
-0.901619
-0.925124
-0.933806
-0.941045
-0.94708
-0.952109
-0.952106
-0.947079
-0.941048
-0.933814
-0.925136
-0.925147
-0.933824
-0.94106
-0.947084
-0.9521
-0.952102
-0.947079
-0.941058
-0.933829
-0.925165
-0.92518
-0.933841
-0.941067
-0.947075
-0.952093
-0.952249
-0.947085
-0.940892
-0.933457
-0.924536
-0.925754
-0.934459
-0.941718
-0.94776
-0.952798
-0.909939
-0.903504
-0.895783
-0.886516
-0.875395
-0.848809
-0.80507
-0.838027
-0.851592
-0.862898
-0.872318
-0.880165
-0.88001
-0.871996
-0.862374
-0.850829
-0.836974
-0.83752
-0.851188
-0.862578
-0.87207
-0.879978
-0.879993
-0.872083
-0.862587
-0.851191
-0.837516
-0.837517
-0.851198
-0.862594
-0.872091
-0.880006
-0.880024
-0.872103
-0.862602
-0.851198
-0.837517
-0.837515
-0.851198
-0.862604
-0.872109
-0.880027
-0.865294
-0.856804
-0.846617
-0.83439
-0.819718
-0.819719
-0.834387
-0.846611
-0.856799
-0.865286
-0.865277
-0.85679
-0.846606
-0.834384
-0.81972
-0.819716
-0.834379
-0.846598
-0.856778
-0.865263
-0.865246
-0.856767
-0.846588
-0.834373
-0.819715
-0.818233
-0.833323
-0.845899
-0.856375
-0.865102
-0.865056
-0.856224
-0.845623
-0.8329
-0.817631
-0.782406
-0.782339
-0.78241
-0.782396
-0.782377
-0.782358
-0.782354
-0.718831
-0.718889
-0.718934
-0.719004
-0.719081
-0.717989
-0.636452
-0.636851
-0.636475
-0.636176
-0.635906
-0.635699
-0.536313
-0.537026
-0.537856
-0.53888
-0.540088
-0.542428
-0.446162
-0.439736
-0.436577
-0.433951
-0.431746
-0.429921
-0.321621
-0.325327
-0.329759
-0.335087
-0.341471
-0.356625
-0.302163
-0.273993
-0.26439
-0.25639
-0.249714
-0.244153
-0.20407
-0.209651
-0.216361
-0.224403
-0.234041
-0.260245
-0.222132
-0.195115
-0.18513
-0.1768
-0.16986
-0.164072
-0.150268
-0.15653
-0.164037
-0.173044
-0.183849
-0.214787
-0.191913
-0.153454
-0.141732
-0.131959
-0.123813
-0.117022
-0.116783
-0.12347
-0.131486
-0.141108
-0.152651
-0.190287
-0.189918
-0.152601
-0.141092
-0.131499
-0.123511
-0.116844
-0.0846781
-0.0909764
-0.0985374
-0.107611
-0.118492
-0.151848
-0.151896
-0.118576
-0.107698
-0.0986318
-0.0910759
-0.0847843
-0.0848517
-0.0911465
-0.0987048
-0.107774
-0.118659
-0.151994
-0.15207
-0.118713
-0.107823
-0.0987511
-0.0911903
-0.0848934
-0.0849113
-0.0912109
-0.0987773
-0.107849
-0.118744
-0.152116
-0.152142
-0.118759
-0.107863
-0.098789
-0.0912204
-0.0849173
-0.0560444
-0.0624538
-0.0701421
-0.0793703
-0.0904388
-0.120007
-0.120015
-0.0904415
-0.0793693
-0.0701424
-0.0624518
-0.0560424
-0.0310338
-0.0376938
-0.0456859
-0.0552764
-0.0667838
-0.101969
-0.0678445
-0.0360004
-0.0259414
-0.0175609
-0.0105734
-0.00475538
0.0212356
0.0153299
0.0082445
-0.000259414
-0.0104638
-0.0395661
-0.0332148
0.00205251
0.0144195
0.0247238
0.0333146
0.0404703
0.0564456
0.0481424
0.0381815
0.0262325
0.0118889
-0.0253341
-0.0104302
0.0294623
0.0436569
0.0554824
0.0653383
0.0735535
0.0883531
0.0813885
0.0730292
0.0629986
0.0509608
0.00798513
0.032964
0.0668793
0.0766905
0.0848679
0.0916829
0.0973608
0.103703
0.0979284
0.0909981
0.0826851
0.0727078
0.047537
0.0439105
0.0725308
0.0843702
0.0942465
0.102484
0.109355
0.0561994
0.0517532
0.046633
0.0406467
0.0335563
0.0125962
-0.0612151
-0.0522566
-0.0495243
-0.0467948
-0.0440631
-0.0413328
-0.142359
-0.143042
-0.143725
-0.144408
-0.145093
-0.149631
-0.246001
-0.243971
-0.243893
-0.243815
-0.243737
-0.24366
-0.344606
-0.344606
-0.344607
-0.344607
-0.344608
-0.34538
-0.445252
-0.444989
-0.444988
-0.444988
-0.444987
-0.444987
-0.545026
-0.545027
-0.545027
-0.545028
-0.545029
-0.545074
-0.645071
-0.645196
-0.645194
-0.645192
-0.645191
-0.645191
-0.746169
-0.74617
-0.746171
-0.746173
-0.746175
-0.745789
-0.847931
-0.848807
-0.848807
-0.848806
-0.848806
-0.848805
-0.846462
-0.846463
-0.846464
-0.846465
-0.846467
-0.845873
-0.948421
-0.949604
-0.949604
-0.949603
-0.949603
-0.949603
-0.94557
-0.945571
-0.945572
-0.945573
-0.945574
-0.944891
-0.942155
-0.942504
-0.942501
-0.942499
-0.942497
-0.942496
-0.940428
-0.940429
-0.940431
-0.940434
-0.940438
-0.940287
-0.939145
-0.939196
-0.939193
-0.939191
-0.939189
-0.939188
-0.938512
-0.938512
-0.938513
-0.938514
-0.938516
-0.93851
-0.938177
-0.938158
-0.938157
-0.938157
-0.938156
-0.938156
-0.937986
-0.93799
-0.937992
-0.937992
-0.937995
-0.938028
-0.937986
-0.937955
-0.937948
-0.937942
-0.937936
-0.937931
-0.938066
-0.938069
-0.938073
-0.938079
-0.93809
-0.938098
-0.93837
-0.938403
-0.938398
-0.938397
-0.938397
-0.938397
-0.939003
-0.939003
-0.939003
-0.939007
-0.939004
-0.938901
-0.939796
-0.94002
-0.940029
-0.940018
-0.940027
-0.940022
-0.941635
-0.941629
-0.941629
-0.941633
-0.941633
-0.94121
-0.943298
-0.944023
-0.944022
-0.944023
-0.94401
-0.944026
-0.947276
-0.947272
-0.947281
-0.947283
-0.947275
-0.946065
-0.949128
-0.951274
-0.951277
-0.95128
-0.951269
-0.951272
-0.955719
-0.955705
-0.955719
-0.955715
-0.955713
-0.951665
-0.967763
-0.985688
-0.991832
-0.996953
-1.00122
-1.00478
-1.00421
-1.0042
-1.0042
-1.0042
-1.00421
-1.0007
-1.00071
-1.00071
-1.00071
-1.00072
-0.996519
-0.996513
-0.996503
-0.996496
-0.996487
-0.991432
-0.991444
-0.991455
-0.991476
-0.991494
-0.985453
-0.985423
-0.9854
-0.985386
-0.985365
-0.96997
-0.969972
-0.969992
-0.970005
-0.970019
-1.05321
-1.05318
-1.05317
-1.05316
-1.05314
-1.05716
-1.05718
-1.0572
-1.05722
-1.05726
-1.05971
-1.05969
-1.05967
-1.05965
-1.05964
-1.06171
-1.06171
-1.06173
-1.06174
-1.06176
-1.06346
-1.06346
-1.06344
-1.06344
-1.06343
-1.06486
-1.06487
-1.06486
-1.06488
-1.06488
-1.06534
-1.06388
-1.06211
-1.05999
-1.05745
-1.05288
-1.05262
-1.05803
-1.06062
-1.06278
-1.06457
-1.06606
-1.00587
-1.00239
-0.998208
-0.993191
-0.987168
-0.965461
-0.902057
-0.904976
-0.929552
-0.937311
-0.943781
-0.949169
-0.953651
-0.910419
-0.90465
-0.897728
-0.889423
-0.879458
-0.851467
-0.807354
-0.841167
-0.853829
-0.864383
-0.873173
-0.880501
-0.86527
-0.856755
-0.846534
-0.834271
-0.819552
-0.784419
-0.783336
-0.818593
-0.833629
-0.846158
-0.856598
-0.865294
-0.865124
-0.856111
-0.845292
-0.832305
-0.81672
-0.781279
-0.780839
-0.81716
-0.832627
-0.845516
-0.856251
-0.865199
-0.865341
-0.865353
-0.865364
-0.86537
-0.865376
-0.856627
-0.856622
-0.856618
-0.856612
-0.856602
-0.846118
-0.846121
-0.846123
-0.846123
-0.846125
-0.83352
-0.833522
-0.833527
-0.83353
-0.833531
-0.818431
-0.818421
-0.818414
-0.818403
-0.818396
-0.780363
-0.780393
-0.780429
-0.780482
-0.780533
-0.716457
-0.716186
-0.715957
-0.71577
-0.715607
-0.630727
-0.631256
-0.631898
-0.632648
-0.633569
-0.634425
-0.541653
-0.537042
-0.534654
-0.532657
-0.53101
-0.529613
-0.420807
-0.423735
-0.42727
-0.431513
-0.436588
-0.447958
-0.370548
-0.352053
-0.344554
-0.338309
-0.333096
-0.328746
-0.270596
-0.275937
-0.282347
-0.290035
-0.299259
-0.325128
-0.317665
-0.288003
-0.278402
-0.270396
-0.263724
-0.258163
-0.220277
-0.226553
-0.234085
-0.24312
-0.253955
-0.292172
-0.251773
-0.218289
-0.207727
-0.198916
-0.191568
-0.185446
-0.184874
-0.19085
-0.198014
-0.206613
-0.216923
-0.249833
-0.212899
-0.18276
-0.172264
-0.16352
-0.156224
-0.150148
-0.150122
-0.156167
-0.163415
-0.172108
-0.182546
-0.212406
-0.212347
-0.182549
-0.172128
-0.163445
-0.156211
-0.150174
-0.116932
-0.123587
-0.131573
-0.141155
-0.152656
-0.189896
-0.189974
-0.152726
-0.141224
-0.131639
-0.123654
-0.116996
-0.117038
-0.1237
-0.131687
-0.141277
-0.152778
-0.190046
-0.190096
-0.152812
-0.141307
-0.131715
-0.123723
-0.117064
-0.117074
-0.123734
-0.131729
-0.14132
-0.152831
-0.190124
-0.190136
-0.152837
-0.141325
-0.131731
-0.123735
-0.117076
-0.0849165
-0.0912199
-0.0987881
-0.107867
-0.118761
-0.152153
-0.152156
-0.118759
-0.107863
-0.0987813
-0.0912155
-0.0849104
-0.0560348
-0.0624443
-0.0701372
-0.0793647
-0.0904391
-0.120016
-0.101969
-0.0667793
-0.0552714
-0.0456785
-0.0376838
-0.0310269
-0.004746
-0.0105711
-0.0175551
-0.0259382
-0.0359976
-0.0678442
-0.0395654
-0.0104595
-0.0002542
0.0082476
0.0153378
0.0212403
0.0404752
0.0333175
0.0247279
0.014424
0.00205514
-0.0332156
-0.0253348
0.0118899
0.0262343
0.0381843
0.0481434
0.0564481
0.0735521
0.0653389
0.0554855
0.0436581
0.0294648
-0.0104304
0.007986
0.050964
0.063
0.073032
0.0813892
0.0883535
0.0973596
0.0916827
0.0848668
0.0766904
0.0668806
0.0329683
0.0475428
0.0727087
0.0826848
0.0909991
0.0979279
0.103701
0.109352
0.102483
0.0942463
0.08437
0.0725307
0.0439138
0.0126021
0.033557
0.0406476
0.0466336
0.0517534
0.0562004
-0.0413253
-0.0440544
-0.0467853
-0.0495161
-0.0522473
-0.0612042
-0.149627
-0.145088
-0.144402
-0.143719
-0.143036
-0.142352
-0.243666
-0.243744
-0.24382
-0.243898
-0.243977
-0.246007
-0.34541
-0.34464
-0.34464
-0.344639
-0.344639
-0.344639
-0.445079
-0.445079
-0.445079
-0.445079
-0.44508
-0.445334
-0.545267
-0.54524
-0.545239
-0.545239
-0.545238
-0.545238
-0.645665
-0.645665
-0.645666
-0.645668
-0.645669
-0.645498
-0.746679
-0.747179
-0.747178
-0.747177
-0.747176
-0.747175
-0.850858
-0.850858
-0.850859
-0.850859
-0.850859
-0.849715
-0.956369
-0.957548
-0.957572
-0.957596
-0.957619
-0.957645
-0.953988
-0.953988
-0.953988
-0.953988
-0.953988
-0.952483
-1.06171
-1.06207
-1.06213
-1.0622
-1.06226
-1.06233
-1.0546
-1.0546
-1.0546
-1.0546
-1.0546
-1.0534
-1.04661
-1.04777
-1.04777
-1.04777
-1.04777
-1.04777
-1.04284
-1.04284
-1.04284
-1.04285
-1.04285
-1.04227
-1.03946
-1.03972
-1.03971
-1.03971
-1.03971
-1.03971
-1.03789
-1.03789
-1.03789
-1.0379
-1.0379
-1.0378
-1.03692
-1.03694
-1.03694
-1.03693
-1.03693
-1.03693
-1.03645
-1.03645
-1.03645
-1.03645
-1.03645
-1.03646
-1.03625
-1.03622
-1.03622
-1.03622
-1.03622
-1.03621
-1.03611
-1.03611
-1.03611
-1.03612
-1.03613
-1.03615
-1.03621
-1.03619
-1.03619
-1.03618
-1.03618
-1.03617
-1.03639
-1.03639
-1.03639
-1.0364
-1.03639
-1.03639
-1.03673
-1.03679
-1.03679
-1.03679
-1.03679
-1.03679
-1.03745
-1.03745
-1.03746
-1.03745
-1.03746
-1.03732
-1.03826
-1.03851
-1.03851
-1.03851
-1.03851
-1.03851
-1.04009
-1.0401
-1.04009
-1.04009
-1.04009
-1.03968
-1.04161
-1.04227
-1.04227
-1.04227
-1.04227
-1.04227
-1.04505
-1.04505
-1.04505
-1.04506
-1.04505
-1.04392
-1.04732
-1.04862
-1.04862
-1.04861
-1.04862
-1.04861
-1.13719
-1.13718
-1.13719
-1.13719
-1.13719
-1.13823
-1.13592
-1.13351
-1.13242
-1.13152
-1.13076
-1.13013
-1.12982
-1.12981
-1.12981
-1.12979
-1.1298
-1.1304
-1.1304
-1.13042
-1.13042
-1.13044
-1.13117
-1.13115
-1.13114
-1.13112
-1.13112
-1.13198
-1.13199
-1.13201
-1.13203
-1.13204
-1.1331
-1.13308
-1.13305
-1.13303
-1.13302
-1.1351
-1.13511
-1.13512
-1.13514
-1.13515
-1.22034
-1.22032
-1.22031
-1.2203
-1.22029
-1.20692
-1.20694
-1.20696
-1.20698
-1.20701
-1.20261
-1.20258
-1.20256
-1.20255
-1.20253
-1.19888
-1.19889
-1.1989
-1.19891
-1.19893
-1.19586
-1.19585
-1.19584
-1.19584
-1.19583
-1.19328
-1.19329
-1.19329
-1.1933
-1.19331
-1.19359
-1.19618
-1.19928
-1.20299
-1.20744
-1.22273
-1.22545
-1.20732
-1.20301
-1.19941
-1.19641
-1.19391
-1.1307
-1.13134
-1.13211
-1.13303
-1.13414
-1.13703
-1.13759
-1.13439
-1.13332
-1.13244
-1.13169
-1.13107
-1.06656
-1.06513
-1.0634
-1.06133
-1.05885
-1.05301
-0.965419
-0.989293
-0.994909
-0.999585
-1.00348
-1.00673
-1.00719
-1.00405
-1.00027
-0.995732
-0.990292
-0.967246
-0.907567
-0.931637
-0.93892
-0.94499
-0.950046
-0.954254
-0.910626
-0.905175
-0.898636
-0.890786
-0.881371
-0.852529
-0.80785
-0.842679
-0.854929
-0.865137
-0.873644
-0.880733
-0.865384
-0.857038
-0.84702
-0.834999
-0.820575
-0.785373
-0.784287
-0.819628
-0.83436
-0.846636
-0.856865
-0.865387
-0.880741
-0.873306
-0.864391
-0.853685
-0.84084
-0.805565
-0.805039
-0.839332
-0.85261
-0.86367
-0.872887
-0.880566
-0.880323
-0.872127
-0.862289
-0.850481
-0.836309
-0.802529
-0.798776
-0.796112
-0.795953
-0.795816
-0.795712
-0.795616
-0.834196
-0.849002
-0.861342
-0.871626
-0.880191
-0.880189
-0.87163
-0.861351
-0.849017
-0.834219
-0.834244
-0.849032
-0.861361
-0.871629
-0.880183
-0.880175
-0.871628
-0.861368
-0.849052
-0.834275
-0.834308
-0.849075
-0.861377
-0.87163
-0.880167
-0.880211
-0.87171
-0.861504
-0.849255
-0.834555
-0.871398
-0.883686
-0.893932
-0.902462
-0.909572
-0.909247
-0.90211
-0.893553
-0.883271
-0.870942
-0.870887
-0.883238
-0.893533
-0.902107
-0.909249
-0.909248
-0.902097
-0.893509
-0.883212
-0.870848
-0.870809
-0.883188
-0.893495
-0.902091
-0.909248
-0.909249
-0.902083
-0.893487
-0.883167
-0.870784
-0.837169
-0.837294
-0.837438
-0.837607
-0.837815