/*--------------------------------*- C++ -*----------------------------------*\
| =========                 |                                                 |
| \\      /  F ield         | OpenFOAM: The Open Source CFD Toolbox           |
|  \\    /   O peration     | Version:  2212                                  |
|   \\  /    A nd           | Website:  www.openfoam.com                      |
|    \\/     M anipulation  |                                                 |
\*---------------------------------------------------------------------------*/
FoamFile
{
    version     2.0;
    format      ascii;
    arch        "LSB;label=32;scalar=64";
    class       volScalarField;
    location    "320";
    object      T;
}
// * * * * * * * * * * * * * * * * * * * * * * * * * * * * * * * * * * * * * //

dimensions      [0 0 0 1 0 0 0];

internalField   nonuniform List<scalar> 
248319
(
310.016
309.954
310.286
310.471
310.603
310.679
310.704
310.759
310.731
310.634
310.478
310.291
310.037
310.161
310.457
310.611
310.69
310.723
310.72
310.482
310.485
310.46
310.427
310.378
310.281
310.209
310.279
310.251
310.243
310.276
310.291
310.517
310.528
310.513
310.494
310.453
310.103
309.644
310.021
310.261
310.394
310.466
310.482
310.471
310.421
310.288
310.102
309.911
309.562
309.437
309.666
309.835
310.028
310.179
310.237
310.432
310.391
310.275
310.13
310.001
309.781
309.94
310.229
310.374
310.526
310.635
310.674
310.814
310.781
310.674
310.517
310.335
309.75
309.92
310.37
310.588
310.74
310.826
310.851
310.796
310.799
310.766
310.68
310.485
310.064
310.187
310.33
310.435
310.526
310.573
310.569
310.169
310.099
310.012
309.931
309.844
309.747
309.722
309.83
309.912
310.004
310.102
310.169
309.856
309.785
309.692
309.601
309.505
309.409
309.315
309.501
309.734
309.977
310.132
310.176
309.963
309.898
309.717
309.484
309.309
309.194
309.076
309.134
309.27
309.493
309.695
309.769
309.69
309.61
309.396
309.176
309.036
308.968
309.324
309.494
309.622
309.812
309.982
310.048
310.264
310.217
310.078
309.917
309.791
309.634
309.465
309.899
310.111
310.305
310.457
310.511
310.653
310.611
310.486
310.319
310.138
309.627
309.592
310.33
310.524
310.685
310.803
310.846
310.957
310.928
310.835
310.689
310.5
309.74
309.889
310.526
310.716
310.835
310.896
310.913
310.848
310.846
310.812
310.742
310.582
310.034
310.125
310.287
310.42
310.545
310.633
310.659
310.247
310.177
310.081
309.978
309.871
309.759
309.498
309.619
309.738
309.864
309.995
310.107
310
309.897
309.783
309.676
309.574
309.475
309.305
309.409
309.517
309.639
309.778
309.916
309.811
309.703
309.583
309.473
309.366
309.264
309.199
309.381
309.607
309.855
310.029
310.083
309.916
309.857
309.682
309.446
309.249
309.086
308.978
309.096
309.273
309.508
309.706
309.774
309.722
309.646
309.439
309.211
309.038
308.916
308.918
309.049
309.221
309.435
309.64
309.726
309.679
309.589
309.369
309.154
309.004
308.909
309.306
309.429
309.527
309.695
309.873
309.945
310.172
310.115
309.956
309.795
309.675
309.542
309.335
309.691
309.95
310.181
310.364
310.432
310.667
310.616
310.451
310.214
309.913
309.164
309.409
310.142
310.374
310.557
310.685
310.729
310.982
310.955
310.877
310.775
310.615
309.407
309.609
310.681
310.818
310.922
311.002
311.03
311.034
311.015
310.95
310.837
310.667
309.706
309.884
310.623
310.788
310.874
310.913
310.922
310.884
310.88
310.852
310.797
310.657
310.036
310.074
310.252
310.4
310.55
310.667
310.714
310.336
310.245
310.117
309.984
309.855
309.729
309.502
309.63
309.767
309.918
310.076
310.209
310.125
309.967
309.792
309.634
309.5
309.385
309.351
309.461
309.582
309.72
309.875
310.022
309.956
309.788
309.62
309.479
309.361
309.262
309.205
309.301
309.408
309.535
309.69
309.853
309.778
309.648
309.514
309.397
309.287
309.182
309.147
309.35
309.58
309.824
309.997
310.051
309.93
309.874
309.708
309.474
309.26
309.049
308.956
309.113
309.318
309.562
309.747
309.805
309.758
309.694
309.501
309.266
309.071
308.927
308.959
309.093
309.273
309.488
309.677
309.747
309.753
309.685
309.519
309.335
309.176
309.047
309.001
309.137
309.297
309.485
309.67
309.754
309.703
309.61
309.397
309.192
309.038
308.921
309.34
309.412
309.486
309.641
309.819
309.896
310.122
310.06
309.903
309.756
309.647
309.522
309.361
309.658
309.91
310.142
310.334
310.408
310.677
310.617
310.436
310.182
309.854
309.159
308.985
310.34
310.762
310.947
311.061
311.102
311.008
310.974
310.878
310.745
310.474
309.081
308.924
310.155
310.711
311.084
311.259
311.31
311.27
311.244
311.159
310.987
310.643
309.285
309.503
310.867
311.027
311.101
311.145
311.159
310.994
310.985
310.95
310.868
310.713
309.56
309.686
310.599
310.774
310.843
310.863
310.865
310.889
310.885
310.862
310.813
310.67
309.892
309.918
310.145
310.333
310.522
310.675
310.745
310.405
310.268
310.082
309.897
309.731
309.583
309.41
309.547
309.713
309.908
310.118
310.289
310.226
310.04
309.822
309.627
309.47
309.349
309.333
309.442
309.591
309.782
309.998
310.186
310.079
309.904
309.72
309.561
309.431
309.326
309.291
309.386
309.509
309.665
309.852
310.035
309.914
309.73
309.554
309.412
309.299
309.208
309.141
309.229
309.333
309.462
309.626
309.807
309.752
309.607
309.465
309.347
309.238
309.133
309.126
309.352
309.586
309.824
309.988
310.04
309.954
309.902
309.748
309.522
309.299
309.045
308.966
309.159
309.379
309.62
309.789
309.839
309.798
309.744
309.568
309.328
309.119
308.961
309.011
309.144
309.331
309.551
309.73
309.79
309.813
309.75
309.585
309.394
309.229
309.106
309.274
309.391
309.531
309.683
309.819
309.879
309.789
309.731
309.603
309.464
309.335
309.216
309.181
309.309
309.439
309.584
309.732
309.806
309.769
309.682
309.489
309.304
309.162
309.046
309.411
309.434
309.482
309.633
309.815
309.894
310.134
310.075
309.919
309.774
309.674
309.564
309.444
309.734
309.972
310.193
310.376
310.445
310.756
310.701
310.537
310.319
310.042
309.28
309.103
310.434
310.836
311.048
311.173
311.216
311.321
311.243
310.985
310.554
310.01
308.89
308.823
309.93
310.524
310.992
311.253
311.33
310.989
310.896
310.579
310.044
309.445
308.687
308.767
309.653
310.229
310.716
311.021
311.124
311.278
311.222
311.031
310.671
310.203
309.088
309.334
310.699
310.976
311.097
311.139
311.147
310.828
310.829
310.821
310.772
310.633
309.421
309.53
310.492
310.678
310.736
310.741
310.738
310.834
310.828
310.805
310.755
310.596
309.625
309.623
309.885
310.138
310.404
310.624
310.735
310.424
310.212
309.944
309.701
309.518
309.395
309.316
309.414
309.579
309.817
310.098
310.333
310.295
310.066
309.789
309.555
309.397
309.311
309.32
309.414
309.576
309.807
310.069
310.28
310.268
310.08
309.84
309.62
309.455
309.336
309.33
309.433
309.576
309.761
309.973
310.16
310.134
309.953
309.749
309.572
309.435
309.333
309.27
309.355
309.472
309.625
309.814
310.004
309.879
309.683
309.503
309.362
309.255
309.173
309.101
309.18
309.279
309.407
309.576
309.77
309.729
309.573
309.427
309.313
309.208
309.106
309.122
309.371
309.606
309.836
309.988
310.036
309.98
309.931
309.789
309.574
309.35
309.059
308.996
309.217
309.442
309.674
309.826
309.871
309.839
309.792
309.631
309.398
309.181
309.007
309.075
309.204
309.397
309.621
309.792
309.845
309.888
309.827
309.661
309.465
309.299
309.184
309.362
309.48
309.625
309.783
309.923
309.982
310.166
310.128
310.048
309.962
309.876
309.784
309.652
309.731
309.814
309.899
309.979
310.019
309.86
309.823
309.761
309.699
309.636
309.567
309.522
309.596
309.657
309.737
309.838
309.899
309.857
309.772
309.601
309.457
309.362
309.307
309.558
309.657
309.716
309.814
309.954
310.023
310.191
310.144
310.005
309.866
309.755
309.633
309.557
309.89
310.072
310.254
310.413
310.473
310.784
310.734
310.596
310.448
310.334
309.459
309.313
310.584
310.873
311.049
311.168
311.214
311.294
311.221
310.997
310.647
310.216
309.076
308.897
309.838
310.311
310.721
310.982
311.069
311.024
310.935
310.632
310.13
309.555
308.728
308.658
309.198
309.775
310.339
310.698
310.808
310.738
310.636
310.268
309.678
309.104
308.641
308.699
309.274
309.828
310.358
310.68
310.78
310.954
310.866
310.61
310.219
309.763
308.952
309.185
310.26
310.608
310.848
310.95
310.974
310.574
310.58
310.584
310.546
310.383
309.319
309.462
310.347
310.51
310.56
310.561
310.557
310.678
310.664
310.62
310.547
310.43
309.518
309.479
309.601
309.839
310.162
310.464
310.633
310.34
310.052
309.734
309.519
309.405
309.333
309.32
309.374
309.473
309.678
309.997
310.293
310.298
310.028
309.714
309.495
309.393
309.352
309.374
309.446
309.573
309.799
310.084
310.312
310.324
310.139
309.9
309.69
309.548
309.416
309.502
309.702
309.835
310.008
310.193
310.335
310.262
310.097
309.886
309.686
309.526
309.371
309.452
309.636
309.778
309.945
310.117
310.254
310.121
309.949
309.754
309.584
309.452
309.341
309.255
309.336
309.447
309.597
309.786
309.979
309.85
309.646
309.464
309.326
309.224
309.15
309.077
309.148
309.241
309.365
309.536
309.739
309.708
309.543
309.396
309.289
309.191
309.093
309.129
309.397
309.631
309.851
309.99
310.035
310.003
309.958
309.827
309.624
309.403
309.084
309.034
309.276
309.502
309.722
309.861
309.9
309.881
309.839
309.69
309.462
309.244
309.06
309.146
309.268
309.464
309.692
309.857
309.905
309.969
309.909
309.742
309.541
309.375
309.27
309.464
309.582
309.73
309.89
310.03
310.09
310.32
310.286
310.217
310.139
310.053
309.951
311.18
311.085
310.983
310.887
310.83
310.816
310.666
310.661
310.665
310.696
310.75
310.821
310.586
310.565
310.562
310.576
310.603
310.621
310.593
310.576
310.537
310.499
310.468
310.444
310.369
310.443
310.492
310.52
310.55
310.569
310.436
310.371
310.232
310.095
309.997
309.937
310.04
310.128
310.231
310.379
310.537
310.609
310.806
310.742
310.561
310.361
310.199
310.033
309.554
309.813
309.95
310.081
310.216
310.269
310.606
310.556
310.433
310.334
310.311
309.455
309.29
310.327
310.684
310.912
311.05
311.099
311.12
311.038
310.782
310.389
309.957
309.064
308.899
309.655
310.112
310.556
310.849
310.943
310.814
310.72
310.391
309.907
309.422
308.801
308.795
309.564
310.071
310.532
310.82
310.909
310.806
310.715
310.393
309.89
309.372
308.76
308.641
309.014
309.534
310.115
310.522
310.648
310.55
310.429
310.002
309.398
308.916
308.671
308.714
309.047
309.544
310.099
310.465
310.574
310.652
310.574
310.319
309.911
309.477
308.905
309.109
309.933
310.275
310.557
310.726
310.777
310.41
310.41
310.406
310.355
310.188
309.269
309.442
310.175
310.282
310.324
310.336
310.336
310.355
310.339
310.287
310.223
310.153
309.504
309.466
309.515
309.59
309.752
309.996
310.187
309.939
309.725
309.559
309.462
309.4
309.352
309.39
309.411
309.463
309.556
309.728
309.954
310.024
309.799
309.6
309.496
309.448
309.449
309.477
309.506
309.574
309.698
309.895
310.09
310.146
309.993
309.825
309.701
309.619
309.528
309.637
309.799
309.873
309.968
310.083
310.182
310.357
310.334
310.3
310.265
310.229
309.968
309.716
309.977
310.064
310.168
310.275
310.359
310.81
310.783
310.744
310.698
310.645
310.267
309.692
309.913
310.004
310.106
310.212
310.299
310.111
309.954
309.777
309.621
309.496
309.371
309.248
309.326
309.434
309.58
309.768
309.961
309.825
309.617
309.434
309.3
309.203
309.136
309.065
309.128
309.214
309.334
309.503
309.712
309.688
309.518
309.373
309.272
309.182
309.09
309.142
309.425
309.656
309.864
309.992
310.033
310.023
309.982
309.861
309.669
309.453
309.115
309.076
309.331
309.554
309.765
309.893
309.927
309.924
309.885
309.744
309.521
309.303
309.119
309.225
309.333
309.529
309.761
309.922
309.968
310.054
309.992
309.823
309.621
309.459
309.369
309.591
309.706
309.851
310.008
310.146
310.205
310.505
310.481
310.429
310.369
310.296
310.201
311.712
311.581
311.443
311.305
311.213
311.189
312.429
312.488
312.673
312.899
313.09
313.239
312.828
312.714
312.557
312.334
312.139
312.074
311.733
311.813
312.054
312.352
312.576
312.683
312.608
312.365
312.044
311.702
311.461
311.386
311.025
311.071
311.265
311.613
311.999
312.39
311.837
311.171
310.813
310.766
310.799
310.821
310.889
310.85
310.755
310.699
310.759
310.903
310.36
310.354
310.37
310.462
310.594
310.659
310.918
310.861
310.722
310.621
310.616
310.675
310.761
310.854
310.901
311.033
311.18
311.24
311.105
311.046
310.887
310.716
310.53
310.002
309.95
310.37
310.708
311.038
311.257
311.331
311.106
311.025
310.783
310.445
310.15
309.9
309.899
310.059
310.314
310.647
310.901
310.988
310.937
310.849
310.588
310.279
310.059
309.93
309.991
310.107
310.309
310.6
310.87
310.97
310.75
310.632
310.254
309.751
309.27
308.756
308.755
309.208
309.673
310.178
310.59
310.736
310.781
310.678
310.316
309.78
309.261
308.772
308.666
308.937
309.391
309.96
310.407
310.554
310.431
310.282
309.812
309.245
308.866
308.74
308.794
308.951
309.372
309.921
310.326
310.448
310.503
310.422
310.142
309.72
309.319
308.932
309.103
309.736
310.073
310.38
310.577
310.642
310.635
310.617
310.545
310.387
310.134
309.269
309.471
310.199
310.24
310.259
310.281
310.288
310.089
310.084
310.048
310.009
309.988
309.531
309.487
309.53
309.581
309.651
309.741
309.812
309.752
309.65
309.557
309.492
309.446
309.411
309.502
309.493
309.519
309.576
309.67
309.778
309.819
309.717
309.618
309.56
309.546
309.589
309.616
309.594
309.625
309.691
309.783
309.871
309.933
309.871
309.797
309.735
309.693
309.664
309.781
309.883
309.92
309.96
310.003
310.034
310.548
310.552
310.546
310.535
310.513
310.219
311.077
311.81
311.891
311.928
311.934
311.922
311.399
311.396
311.383
311.357
311.307
310.765
311.419
312.047
312.034
311.913
311.744
311.595
311.281
311.332
311.384
311.417
311.411
310.963
310.178
310.483
310.534
310.577
310.61
310.632
310.108
309.978
309.836
309.716
309.62
309.493
309.247
309.326
309.431
309.576
309.761
309.949
309.806
309.595
309.413
309.282
309.19
309.128
309.062
309.117
309.196
309.31
309.477
309.69
309.669
309.497
309.355
309.261
309.18
309.095
309.158
309.453
309.68
309.874
309.991
310.03
310.038
310.001
309.888
309.707
309.497
309.148
309.12
309.378
309.598
309.801
309.919
309.951
309.962
309.925
309.788
309.567
309.353
309.178
309.302
309.389
309.578
309.811
309.973
310.019
310.113
310.049
309.878
309.679
309.528
309.458
309.688
309.792
309.929
310.081
310.215
310.273
310.587
310.573
310.537
310.491
310.436
310.371
311.904
311.758
311.6
311.443
311.331
311.285
312.525
312.586
312.75
312.943
313.093
313.199
313.803
313.467
313.225
313.004
312.873
312.854
313.753
316.146
325.382
357.756
436.123
427.457
346.538
320.111
314.582
313.361
313.265
313.77
316.333
334.973
415.669
404.462
328.387
315.144
313.748
313.441
313.699
313.975
315.104
326.739
400.533
405.78
328.586
315.659
314.398
314.094
314.548
314.885
316.633
332.627
414.472
412.329
331.824
316.72
315.211
315.05
314.971
315.189
315.243
315.377
316.575
329.764
407.15
402.506
327.591
315.968
314.998
314.881
314.564
314.714
315.7
327.255
402.067
408.642
329.432
315.769
314.451
314.209
313.932
314.463
317.109
337.11
423.604
441.957
354.009
322.739
315.926
314.294
315.923
320.168
333.405
372.104
452.851
453.906
373.555
333.368
319.875
315.772
314.573
316.236
323.506
356.143
443.584
426.904
339.415
317.825
314.866
314.336
314.617
314.856
316.356
331.429
412.888
406.106
328.843
316.211
315.114
314.965
315.296
315.395
316.383
328.482
404.828
404.974
328.89
316.816
315.849
315.767
315.721
315.227
314.861
314.465
314.06
313.821
313.815
313.511
313.596
313.903
314.349
314.766
315.104
314.866
314.484
314.034
313.576
313.277
313.2
312.807
312.876
313.159
313.626
314.11
314.539
314.1
313.65
313.161
312.705
312.453
312.399
311.709
311.714
311.819
312.131
312.584
313.476
312.242
311.907
311.684
311.582
311.588
311.611
311.316
311.291
311.272
311.365
311.624
312.033
311.086
310.994
310.935
310.985
311.079
311.125
311.335
311.291
311.184
311.129
311.23
312.105
311.772
311.066
310.921
310.967
311.08
311.131
311.395
311.348
311.228
311.141
311.185
312.331
312.778
311.73
311.562
311.594
311.685
311.731
311.592
311.549
311.451
311.417
311.388
310.721
310.604
311.486
311.826
312.072
312.214
312.259
312.315
312.244
312.025
311.697
311.279
310.482
310.464
311.128
311.593
311.949
312.179
312.257
312.228
312.161
311.938
311.577
311.105
310.535
310.671
311.208
311.674
312.024
312.239
312.308
311.048
310.945
310.674
310.397
310.204
310.082
310.21
310.336
310.532
310.803
311.072
311.183
310.755
310.597
310.169
309.672
309.223
308.798
308.841
309.232
309.725
310.274
310.673
310.795
310.509
310.347
309.879
309.336
308.939
308.726
308.837
308.891
309.189
309.705
310.196
310.376
310.381
310.251
309.82
309.29
308.946
308.933
309.018
309.253
309.614
310.04
310.345
310.439
310.543
310.479
310.271
309.955
309.633
309.152
309.302
310.054
310.348
310.604
310.768
310.821
310.579
310.561
310.511
310.462
310.36
309.528
309.585
310.111
310.077
310.085
310.116
310.12
309.852
309.77
309.68
309.615
309.57
309.53
309.496
309.514
309.552
309.609
309.697
309.806
309.837
309.728
309.646
309.609
309.609
309.644
309.757
309.673
309.659
309.697
309.785
309.894
309.962
309.868
309.779
309.728
309.72
309.785
309.834
309.821
309.85
309.906
309.983
310.056
310.206
310.17
310.125
310.086
310.053
309.97
310.454
310.786
310.825
310.854
310.882
310.91
312.201
312.25
312.259
312.203
312.079
311.242
311.804
312.507
312.563
312.323
311.976
311.7
311.658
311.906
312.198
312.399
312.382
311.63
311.838
312.019
311.932
311.684
311.37
311.08
311.119
311.388
311.687
311.926
312.025
311.728
311.434
311.726
311.649
311.5
311.317
311.151
310.883
310.932
310.978
311.01
311.016
310.744
309.789
309.942
310.003
310.075
310.157
310.232
309.944
309.765
309.588
309.448
309.345
309.265
309.125
309.184
309.273
309.4
309.58
309.791
309.671
309.457
309.293
309.185
309.112
309.065
309.105
309.183
309.255
309.342
309.479
309.652
310.026
309.989
309.882
309.701
309.48
309.177
309.179
309.532
309.737
309.909
310.014
310.048
309.966
309.938
309.825
309.629
309.414
309.161
309.23
309.387
309.595
309.813
309.949
309.984
310.042
309.996
309.829
309.599
309.423
309.365
309.506
309.55
309.689
309.885
310.059
310.126
310.268
310.207
310.071
309.919
309.785
309.679
310.3
310.368
310.433
310.483
310.524
310.548
311.278
311.359
311.492
311.643
311.795
311.948
313.485
313.867
314.233
315.887
331.877
416.673
415.126
416.896
420.073
420.236
420.826
345.514
342.141
337.192
332.621
330.924
315.407
315.528
316.582
318.763
320.883
314.629
314
313.578
313.593
313.818
313.487
313.209
312.996
312.936
313.007
312.323
312.424
312.618
312.886
313.176
313.087
312.739
312.394
312.112
311.932
312.38
312.529
312.762
313.062
313.388
313.844
313.526
313.375
313.355
313.358
317.175
316.961
316.594
316.376
317.275
340.338
339.081
337.432
335.9
335.11
407.092
410.416
419.797
426.429
428.031
428.722
341.07
318.158
314.457
313.851
313.419
313.766
314.212
315.014
319.183
342.638
429.305
418.089
333.966
316.611
314.619
314.193
313.841
314.172
314.406
314.755
315.171
317.707
337.644
421.202
424.636
338.769
318.109
315.597
315.362
315.344
315.4
315.495
315.702
317.453
334.251
416.618
409.415
330.876
317.386
316.261
316.179
316.139
316.226
316.274
316.367
317.592
331.733
410.77
404.791
329.106
316.881
315.875
315.783
315.722
315.253
315.312
315.409
316.373
328.128
402.881
402.897
409.022
421.588
436.958
448.177
367.888
351.534
337.18
330.286
328.06
316.152
316.245
317.449
321.987
329.469
317.885
315.745
314.841
314.89
315.137
315.016
314.704
314.42
314.449
314.958
313.919
313.978
314.234
314.603
314.94
314.877
314.549
314.168
313.868
313.77
313.552
313.64
313.926
314.311
314.647
314.905
314.568
314.29
313.922
313.522
313.265
313.2
312.677
312.715
312.907
313.306
313.744
314.135
313.578
312.684
312.28
312.04
311.99
312.001
311.865
311.84
311.819
311.904
312.105
312.435
313.106
312.294
312.079
312.012
312.047
312.074
311.826
311.801
311.769
311.854
312.124
313.082
312.824
311.937
311.616
311.53
311.568
311.6
311.877
311.848
311.814
311.936
312.418
314.036
313.089
311.483
311.387
311.452
311.561
311.609
311.898
311.863
311.783
311.764
311.967
313.741
314.371
313.028
312.77
312.624
312.584
312.588
312.451
312.444
312.434
312.451
312.452
313.269
313.73
312.528
312.621
312.776
312.914
312.969
312.933
312.888
312.764
312.633
312.6
314.221
314.724
312.782
312.726
312.817
312.923
312.97
313.042
313.014
312.941
312.911
313.084
315.223
315.696
313.492
313.179
313.134
313.172
313.197
312.435
312.383
312.197
311.876
311.426
310.883
311.201
311.769
312.2
312.473
312.618
312.66
311.361
311.253
310.993
310.732
310.535
310.388
308.888
309.294
309.74
310.231
310.667
310.841
310.839
310.712
310.298
309.759
309.293
308.952
308.815
308.992
309.354
309.871
310.349
310.532
310.365
310.172
309.682
309.217
308.977
308.955
309.1
309.014
309.276
309.785
310.234
310.382
310.424
310.328
310.006
309.582
309.267
309.143
309.243
309.598
309.9
310.224
310.447
310.517
310.784
310.725
310.546
310.283
310
309.37
309.59
310.411
310.567
310.654
310.723
310.749
310.207
310.209
310.187
310.2
310.264
309.647
309.589
309.628
309.671
309.734
309.827
309.921
309.882
309.77
309.688
309.641
309.616
309.605
309.809
309.739
309.72
309.742
309.816
309.931
310.004
309.89
309.808
309.788
309.828
309.947
309.976
309.875
309.866
309.907
309.997
310.103
310.239
310.155
310.072
310.016
309.994
310.035
310.192
310.261
310.297
310.345
310.401
310.449
311.234
311.171
311.117
311.065
311.007
310.671
311.391
312.186
312.348
312.432
312.427
312.365
311.791
312.037
312.341
312.606
312.603
312.077
311.862
311.822
311.673
311.487
311.253
311.037
311.062
311.313
311.583
311.816
311.94
311.888
310.666
310.693
310.632
310.506
310.353
310.206
310.332
310.541
310.764
310.947
311.045
311.038
311.326
311.354
311.227
311.001
310.731
310.488
310.672
310.879
311.117
311.325
311.458
311.406
311.065
311.164
311.092
310.986
310.867
310.761
310.381
310.368
310.355
310.338
310.317
310.181
309.356
309.412
309.496
309.616
309.778
309.941
309.779
309.57
309.392
309.267
309.183
309.126
309.071
309.114
309.181
309.284
309.444
309.657
309.632
309.46
309.329
309.251
309.189
309.118
309.195
309.504
309.721
309.889
309.988
310.026
310.049
310.02
309.923
309.758
309.559
309.209
309.195
309.435
309.644
309.835
309.944
309.972
309.985
309.951
309.816
309.599
309.402
309.273
309.41
309.43
309.587
309.813
309.984
310.032
310.094
310.025
309.846
309.656
309.537
309.518
309.595
309.691
309.829
309.99
310.139
310.206
310.484
310.442
310.365
310.277
310.186
310.079
311.975
311.809
311.654
311.467
311.28
311.154
310.983
311.143
311.38
311.605
311.794
311.984
313.404
313.946
315.289
322.038
351.064
437.423
433.087
425.348
410.231
397.34
395.091
327.168
328.502
332.736
338.977
345.68
318.694
316.334
315.517
314.865
314.479
312.353
312.609
312.936
313.297
313.814
313.245
312.84
312.434
312.072
311.82
311.548
311.782
312.139
312.561
312.978
313.035
312.429
311.889
311.459
311.194
311.394
311.698
312.157
312.701
313.516
315.275
313.394
312.563
312.067
311.722
313.076
313.6
314.73
317.715
322.998
351.861
340.69
330.124
324.727
323.428
390.492
392.873
407.923
423.072
433.861
443.751
364.659
331.417
319.607
315.612
313.754
314.51
317.559
322.8
336.062
369.807
446.73
438.359
353.32
324.018
316.416
314.523
313.762
314.099
314.821
316.937
325.363
356.273
440.707
431.506
345.47
320.097
315.277
314.42
314.07
314.153
314.402
314.829
317.335
336.899
420.045
420.572
338.162
317.807
315.082
314.674
314.486
314.631
314.944
315.406
318.399
340.077
423.571
431.486
343.563
319.26
315.915
315.549
315.488
315.56
315.71
315.984
318.032
336.55
420.785
411.044
331.701
317.818
316.671
316.598
316.567
316.794
316.834
316.911
318.223
333.368
414.049
424.753
338.726
319.1
317.054
316.936
316.867
316.224
316.306
316.443
318.207
335.76
419.68
410.661
331.363
317.184
315.895
315.776
315.691
315.247
314.97
314.681
314.352
314.091
314.009
314.665
316.915
326.768
361.609
441.215
434.02
350.05
321.399
315.534
314.428
314.491
314.876
317.602
338.31
423.718
413.274
331.743
316.432
314.937
314.763
315.043
315.165
316.304
329.348
407.163
406.877
329.443
316.533
315.423
315.314
315.346
315.459
316.91
332.338
414.718
419.227
333.829
316.893
315.228
315.08
314.812
315.028
317.238
337.203
425.628
430.272
343.331
318.563
315
314.55
314.439
315.483
321.365
349.258
430.026
430.68
353.301
324.105
316.237
314.518
314.073
314.159
314.414
314.73
315.011
315.295
314.906
314.774
314.616
314.399
314.176
314.074
314.043
314.147
314.38
314.612
314.781
314.911
314.589
314.492
314.35
314.136
313.938
313.865
313.598
313.655
313.839
314.086
314.25
314.302
313.842
313.668
313.415
313.162
313.03
313.005
312.884
312.934
313.098
313.365
313.63
313.834
313.35
312.98
312.706
312.517
312.46
312.466
312.238
312.25
312.335
312.555
312.877
313.267
313.493
312.96
312.636
312.45
312.397
312.395
312.582
312.589
312.657
312.876
313.283
314.001
314.111
312.653
312.356
312.263
312.282
312.304
312.095
312.069
312.05
312.173
312.566
314.227
314.362
312.587
312.314
312.242
312.271
312.297
312.131
312.1
312.051
312.101
312.404
314.554
314.85
313.356
312.932
312.695
312.637
312.637
313.433
313.446
313.477
313.538
313.72
315.082
314.851
313.401
313.296
313.317
313.37
313.387
313.432
313.409
313.369
313.389
313.574
315.249
315.6
313.802
313.526
313.453
313.467
313.482
313.551
313.547
313.567
313.705
314.08
315.898
316.151
314.385
313.918
313.714
313.656
313.648
313.746
313.768
313.864
314.133
314.682
316.371
316.121
314.025
313.537
313.402
313.389
313.393
313.629
313.644
313.713
313.95
314.558
316.507
311.678
312.259
312.64
312.839
312.922
312.941
311.595
311.491
311.246
310.995
310.795
310.64
309.034
309.448
309.893
310.374
310.801
310.976
310.952
310.818
310.401
309.875
309.427
309.113
308.942
309.108
309.447
309.941
310.416
310.607
310.419
310.213
309.731
309.303
309.099
309.098
309.285
309.148
309.33
309.807
310.273
310.43
310.465
310.363
310.024
309.611
309.345
309.297
309.37
309.635
309.912
310.236
310.469
310.54
310.771
310.711
310.532
310.272
310.004
309.473
309.678
310.462
310.649
310.758
310.835
310.863
310.313
310.319
310.306
310.34
310.425
309.731
309.674
309.712
309.751
309.813
309.909
310.014
309.993
309.872
309.793
309.754
309.741
309.747
309.998
309.901
309.86
309.867
309.936
310.061
310.163
310.034
309.951
309.943
310.004
310.156
310.189
310.061
310.041
310.081
310.181
310.305
310.504
310.4
310.3
310.235
310.212
310.266
310.459
310.527
310.576
310.642
310.719
310.788
311.507
311.424
311.35
311.28
311.208
310.916
311.63
312.287
312.452
312.546
312.566
312.536
311.959
312.158
312.4
312.628
312.744
312.384
311.772
311.699
311.581
311.421
311.24
311.08
310.118
310.19
310.264
310.31
310.288
310.122
310.319
310.39
310.375
310.305
310.222
310.135
309.363
309.422
309.487
309.531
309.54
309.513
309.78
309.819
309.803
309.738
309.642
309.547
309.776
309.92
310.07
310.179
310.222
310.184
310.668
310.654
310.563
310.398
310.193
310.007
310.256
310.446
310.668
310.862
310.99
311.037
311.06
311.019
310.914
310.775
310.625
310.499
310.419
310.443
310.472
310.498
310.516
310.467
309.514
309.528
309.59
309.686
309.816
309.951
309.77
309.564
309.389
309.267
309.185
309.131
309.081
309.118
309.18
309.277
309.433
309.644
309.618
309.448
309.323
309.253
309.198
309.132
309.212
309.526
309.739
309.897
309.989
310.024
310.047
310.018
309.926
309.767
309.575
309.233
309.223
309.444
309.643
309.831
309.936
309.962
309.964
309.931
309.795
309.584
309.402
309.308
309.447
309.424
309.553
309.771
309.944
309.992
310.029
309.958
309.776
309.595
309.501
309.52
309.492
309.573
309.705
309.873
310.033
310.106
310.385
310.322
310.204
310.074
309.95
309.828
309.621
309.728
309.866
310.025
310.178
310.251
310.784
310.95
311.206
311.454
311.68
311.946
311.538
311.334
311.131
310.909
310.688
310.554
310.544
310.702
311.187
311.771
312.618
314.053
315.198
312.933
311.853
311.167
310.681
310.538
310.871
311.166
311.668
312.352
313.912
317.09
313.119
311.719
311.254
310.973
311.308
311.52
312.134
315.468
322.743
336.452
323.956
315.864
314.102
314.481
338.432
335.235
341.886
355.105
370.765
449.595
442.515
433.934
422.87
426.449
447.294
441.828
445.135
447.941
451.564
375.594
365.713
357.995
355.567
362.179
321.723
319.678
321.806
330.09
341.538
327.412
318.329
313.327
312.087
312.135
310.933
311.141
311.733
314.205
320.235
314.948
312.426
311.514
311.072
310.793
310.425
310.555
311.006
311.753
313.383
319.402
324.624
338.772
348.182
361.281
388.987
455.966
457.588
393.09
369.334
358.553
349.671
330.902
324.229
339.148
353.067
374.905
410.141
466.968
456.417
388.803
352.971
334.547
324.945
316.818
317.249
326.982
337.32
356.743
393.672
460.117
449.602
373.426
338.472
324.24
318.427
314.948
315.345
318.703
324.531
339.06
374.748
450.828
441.672
357.409
325.788
317.178
315.102
314.46
314.391
314.658
315.384
320.156
346.157
432.299
432.025
345.853
320.219
315.717
315.123
314.934
314.924
315.061
315.416
318.033
338.079
420.2
423.747
340.181
318.619
315.678
315.245
314.962
315.623
315.705
316.102
319.373
343.316
431.318
419.82
336.007
318.158
316.212
315.908
315.689
316.999
316.998
317.05
318.037
330.909
408.96
413.204
333.095
318.612
317.457
317.428
317.404
317.576
317.587
317.637
319.564
338.992
425.195
433.285
344.869
320.773
317.817
317.712
317.755
317.012
317.016
317.19
320.185
344.059
432.202
424.553
338.841
318.775
316.514
316.365
316.346
315.78
315.808
315.918
317.439
333.12
414.517
414.484
333.353
317.465
315.898
315.773
315.7
315.194
314.934
314.691
314.413
314.174
314.093
314.269
315.145
319.582
339.471
410.974
411.344
338.884
318.783
314.927
314.3
314.487
314.828
317.818
338.816
417.922
420.771
336.694
317.1
314.957
314.758
315.014
315.165
316.805
333.735
417.17
414.411
332.469
316.893
315.42
315.285
315.277
315.434
317.395
336.62
424.915
427.35
342.972
319.799
315.618
315.047
314.773
315.291
319.413
343.048
425.857
416.052
338.168
317.944
314.814
314.469
314.247
314.667
317.439
333.129
401.274
396.365
330.974
317.165
314.624
314.176
314.107
314.186
314.418
314.697
314.945
315.206
314.849
314.649
314.511
314.36
314.204
314.127
314.11
314.185
314.352
314.506
314.618
314.751
314.593
314.532
314.451
314.304
314.137
314.061
313.894
313.942
314.093
314.25
314.311
314.273
313.822
313.88
313.751
313.591
313.475
313.438
313.384
313.449
313.614
313.809
313.939
313.992
313.666
313.603
313.506
313.357
313.239
313.206
313.032
313.066
313.193
313.388
313.566
313.677
313.744
313.482
313.242
313.028
312.908
312.881
312.606